 Gaussian 16, Revision A.03,
 Gaussian 16:  ES64L-G16RevA.03 25-Dec-2016

 ----------------------------------------------------------------------
 # wb97xd/6-311++G(d,p) integral(ultrafinegrid) guess=read geom=check s
 crf=(cpcm,read,solvent=water)
 ----------------------------------------------------------------------

 Candidate Structure: MaDA-TS-1, Conformer: 1, Single-point energies ca
 lculated with wB97X-D/6-311++G(d,p)
 ----------------------------------------------------------------------
 Structure from the checkpoint file:  "MaDA-TS-1-conf-1.chk"
 Charge =  0 Multiplicity = 1

                         Standard orientation:
 ---------------------------------------------------------------------
 Center     Atomic      Atomic             Coordinates (Angstroms)
 Number     Number       Type             X           Y           Z
 ---------------------------------------------------------------------
      1          6           0        7.593290   -1.882525    0.655581
      2          6           0        7.146951   -3.126640    0.213290
      3          6           0        5.812565   -3.302697   -0.156893
      4          6           0        4.939685   -2.225656   -0.065708
      5          6           0        5.346988   -0.970196    0.391028
      6          6           0        6.702246   -0.815423    0.732921
      7          1           0        8.636337   -1.759379    0.932790
      8          1           0        5.462786   -4.266519   -0.515429
      9          1           0        3.907053   -2.366737   -0.375157
     10          8           0        8.063494   -4.126983    0.158984
     11          1           0        7.639576   -4.933866   -0.162089
     12          8           0        7.106509    0.417063    1.139966
     13          1           0        8.052486    0.399899    1.335624
     14          6           0        4.418643    0.185828    0.477874
     15          1           0        4.842525    1.082229    0.918222
     16          6           0        3.060056   -0.019855    0.770905
     17          1           0        2.627553   -1.011251    0.736821
     18          6           0        2.262591    1.096007    1.167935
     19          8           0        2.758138    2.259416    1.135473
     20          6           0        0.845573    0.919992    1.568221
     21          6           0        0.290388   -0.331117    1.871586
     22          6           0       -0.013641    2.042900    1.588943
     23          6           0       -1.046013   -0.479940    2.178060
     24          1           0        0.923765   -1.211572    1.881156
     25          6           0       -1.386614    1.912663    1.858738
     26          6           0       -1.883169    0.640676    2.150355
     27          1           0       -1.470345   -1.450885    2.407902
     28          8           0        0.451891    3.276789    1.329364
     29          1           0        1.438350    3.161783    1.210737
     30          8           0       -3.195127    0.412569    2.418754
     31          1           0       -3.686097    1.243694    2.437663
     32          6           0       -2.069305   -1.274172   -1.058288
     33          6           0       -0.958071   -2.114511   -1.175884
     34          6           0       -1.911926    0.100052   -1.212252
     35          6           0        0.292909   -1.563962   -1.411723
     36          1           0       -1.060505   -3.189656   -1.062947
     37          6           0       -0.650830    0.644134   -1.431077
     38          1           0       -2.767873    0.758674   -1.130778
     39          6           0        0.495987   -0.168300   -1.543730
     40          8           0       -0.506432    1.984612   -1.540538
     41          1           0       -1.278590    2.417550   -1.132150
     42          8           0        1.397684   -2.350719   -1.498249
     43          1           0        1.151909   -3.273520   -1.352038
     44          6           0        1.860080    0.314771   -1.648213
     45          1           0        2.585713   -0.485818   -1.703952
     46          6           0        2.320306    1.604694   -1.761390
     47          1           0        1.613789    2.423576   -1.801090
     48          6           0        3.689487    1.925469   -1.600418
     49          6           0        4.645770    0.928648   -1.392471
     50          1           0        4.503327   -0.040178   -1.859109
     51          1           0        5.688687    1.232133   -1.328005
     52          6           0        4.102059    3.370309   -1.505012
     53          1           0        4.619064    3.687157   -2.419103
     54          1           0        3.243255    4.028937   -1.352445
     55          1           0        4.796174    3.513429   -0.670577
     56          6           0       -2.289792    3.123744    1.736849
     57          1           0       -1.693432    4.025099    1.879153
     58          1           0       -3.035688    3.135943    2.544646
     59          6           0       -3.006062    3.146670    0.405829
     60          1           0       -3.774714    2.381520    0.285957
     61          6           0       -2.802807    3.979657   -0.626487
     62          6           0       -3.621364    3.853528   -1.888037
     63          1           0       -2.975512    3.634642   -2.747916
     64          1           0       -4.374094    3.063139   -1.813183
     65          1           0       -4.133228    4.797945   -2.109619
     66          6           0       -1.782849    5.090108   -0.645048
     67          1           0       -2.283346    6.065384   -0.601964
     68          1           0       -1.065039    5.024134    0.173967
     69          1           0       -1.220308    5.066219   -1.586245
     70          6           0       -5.231451   -2.968955   -0.204931
     71          6           0       -5.526517   -1.604272   -0.320746
     72          6           0       -6.783780   -1.056420   -0.117866
     73          6           0       -7.793623   -1.952467    0.221721
     74          6           0       -7.537526   -3.333807    0.343796
     75          6           0       -6.267090   -3.847022    0.134215
     76          6           0       -3.824819   -3.080115   -0.487932
     77          6           0       -3.383699   -1.821546   -0.746090
     78          1           0       -6.980192    0.005259   -0.211221
     79          1           0       -8.353346   -4.001793    0.607294
     80          1           0       -6.085897   -4.912384    0.233930
     81          1           0       -3.230155   -3.982221   -0.488045
     82          8           0       -9.033432   -1.434413    0.429493
     83          1           0       -9.644058   -2.143004    0.670814
     84          8           0       -4.411184   -0.908466   -0.653186
 ---------------------------------------------------------------------

 SCF Done:  E(RwB97XD) =  -2184.70061716     A.U. after   17 cycles

 The electronic state is 1-A.
 Alpha  occ. eigenvalues --  -19.32294 -19.29454 -19.29082 -19.29042 -19.29006
 Alpha  occ. eigenvalues --  -19.28917 -19.28462 -19.26450 -19.22358 -10.36963
 Alpha  occ. eigenvalues --  -10.36723 -10.36601 -10.36557 -10.36484 -10.36409
 Alpha  occ. eigenvalues --  -10.36123 -10.36110 -10.35984 -10.35778 -10.32430
 Alpha  occ. eigenvalues --  -10.31806 -10.31296 -10.31131 -10.30637 -10.30613
 Alpha  occ. eigenvalues --  -10.30594 -10.30221 -10.30107 -10.29980 -10.29947
 Alpha  occ. eigenvalues --  -10.29935 -10.29898 -10.29765 -10.29699 -10.29642
 Alpha  occ. eigenvalues --  -10.29401 -10.29270 -10.29244 -10.29197 -10.29139
 Alpha  occ. eigenvalues --  -10.29037 -10.28986 -10.28522 -10.28180 -10.28022
 Alpha  occ. eigenvalues --  -10.28005 -10.27781 -10.27769  -1.23086  -1.18568
 Alpha  occ. eigenvalues --   -1.18189  -1.18034  -1.17946  -1.17925  -1.17853
 Alpha  occ. eigenvalues --   -1.16846  -1.12146  -0.97915  -0.97097  -0.97007
 Alpha  occ. eigenvalues --   -0.96320  -0.94322  -0.93190  -0.92037  -0.90395
 Alpha  occ. eigenvalues --   -0.89636  -0.88773  -0.86599  -0.86004  -0.85516
 Alpha  occ. eigenvalues --   -0.85013  -0.84797  -0.83575  -0.82155  -0.81957
 Alpha  occ. eigenvalues --   -0.79520  -0.79202  -0.76627  -0.75952  -0.75584
 Alpha  occ. eigenvalues --   -0.74653  -0.74012  -0.73490  -0.72958  -0.71200
 Alpha  occ. eigenvalues --   -0.70603  -0.70475  -0.69547  -0.68177  -0.67023
 Alpha  occ. eigenvalues --   -0.66822  -0.65849  -0.64497  -0.63925  -0.62594
 Alpha  occ. eigenvalues --   -0.62086  -0.61686  -0.61055  -0.60816  -0.60120
 Alpha  occ. eigenvalues --   -0.59431  -0.59010  -0.58498  -0.58328  -0.57430
 Alpha  occ. eigenvalues --   -0.57162  -0.57035  -0.56207  -0.55593  -0.55475
 Alpha  occ. eigenvalues --   -0.55327  -0.55111  -0.54312  -0.54061  -0.53421
 Alpha  occ. eigenvalues --   -0.53188  -0.52953  -0.52878  -0.52754  -0.52458
 Alpha  occ. eigenvalues --   -0.51823  -0.51548  -0.51113  -0.50955  -0.50614
 Alpha  occ. eigenvalues --   -0.50508  -0.50030  -0.50012  -0.49840  -0.49542
 Alpha  occ. eigenvalues --   -0.49473  -0.49103  -0.48244  -0.48052  -0.47866
 Alpha  occ. eigenvalues --   -0.47666  -0.47411  -0.47250  -0.47195  -0.46786
 Alpha  occ. eigenvalues --   -0.46364  -0.46041  -0.45990  -0.45894  -0.45645
 Alpha  occ. eigenvalues --   -0.45400  -0.44573  -0.44149  -0.43856  -0.43551
 Alpha  occ. eigenvalues --   -0.43484  -0.42961  -0.42892  -0.42474  -0.42091
 Alpha  occ. eigenvalues --   -0.42023  -0.40852  -0.40552  -0.38671  -0.37037
 Alpha  occ. eigenvalues --   -0.34472  -0.33839  -0.33119  -0.32990  -0.32539
 Alpha  occ. eigenvalues --   -0.31568  -0.30579  -0.30240  -0.29374  -0.28017
 Alpha  occ. eigenvalues --   -0.26297
 Alpha virt. eigenvalues --   -0.03386   0.00605   0.03225   0.03813   0.04159
 Alpha virt. eigenvalues --    0.04228   0.04398   0.04774   0.04973   0.05082
 Alpha virt. eigenvalues --    0.05274   0.05591   0.05750   0.05814   0.06014

 Mulliken charges:
               1
     1  C   -0.167055
     2  C   -0.710850
     3  C   -0.150016
     4  C   -0.403569
     5  C    0.449848
     6  C   -0.322273
     7  H    0.255355
     8  H    0.252045
     9  H    0.183080
    10  O   -0.266209
    11  H    0.318008
    12  O   -0.212804
    13  H    0.322693
    14  C    0.325072
    15  H    0.391020
    16  C   -0.099953
    17  H    0.008364
    18  C   -0.150303
    19  O   -0.255847
    20  C    0.608246
    21  C   -0.265703
    22  C   -0.543722
    23  C   -0.137883
    24  H    0.265421
    25  C    0.122657
    26  C   -0.514191
    27  H    0.247403
    28  O   -0.204523
    29  H    0.360363
    30  O   -0.145669
    31  H    0.342580
    32  C    0.275424
    33  C   -0.713312
    34  C   -0.340960
    35  C   -0.297140
    36  H    0.225925
    37  C   -0.169859
    38  H    0.342631
    39  C    0.078741
    40  O   -0.052922
    41  H    0.400321
    42  O   -0.161382
    43  H    0.322601
    44  C   -0.432587
    45  H    0.259171
    46  C   -0.525257
    47  H    0.219282
    48  C    1.053207
    49  C   -0.907911
    50  H    0.205900
    51  H    0.272116
    52  C   -0.740556
    53  H    0.203552
    54  H    0.180408
    55  H    0.194551
    56  C   -0.618556
    57  H    0.207366
    58  H    0.243486
    59  C   -0.268227
    60  H    0.119224
    61  C    0.302186
    62  C   -0.659504
    63  H    0.217545
    64  H    0.163259
    65  H    0.209167
    66  C   -0.662988
    67  H    0.213652
    68  H    0.148603
    69  H    0.195389
    70  C    0.331118
    71  C    0.274546
    72  C   -0.767532
    73  C   -0.582588
    74  C    0.118420
    75  C   -0.643681
    76  C    0.068592
    77  C    0.366533
    78  H    0.270929
    79  H    0.236413
    80  H    0.247275
    81  H    0.266858
    82  O   -0.245601
    83  H    0.317870
    84  O    0.136720
 Sum of Mulliken charges =  -0.00000

 Dipole moment (field-independent basis, Debye):
    X=             -2.3988    Y=             -7.7259    Z=             -2.0653  Tot=              8.3492
 Quadrupole moment (field-independent basis, Debye-Ang):
   XX=           -225.1717   YY=           -229.2560   ZZ=           -296.6821
   XY=             -1.7935   XZ=            -13.1377   YZ=             -2.8900

 Normal termination of Gaussian 16 at Tue Jul 11 11:00:08 2023.
