 Gaussian 16, Revision A.03,
 Gaussian 16:  ES64L-G16RevA.03 25-Dec-2016

 ----------------------------------------------------------------------
 # wb97xd/6-311++G(d,p) integral(ultrafinegrid) guess=read geom=check s
 crf=(cpcm,read,solvent=water)
 ----------------------------------------------------------------------

 Candidate Structure: MaDA-TS-1, Conformer: 1, Single-point energies ca
 lculated with wB97X-D/6-311++G(d,p)
 ----------------------------------------------------------------------
 Structure from the checkpoint file:  "MaDA-4-conf-1.chk"
 Charge =  0 Multiplicity = 1

                         Standard orientation:
 ---------------------------------------------------------------------
 Center     Atomic      Atomic             Coordinates (Angstroms)
 Number     Number       Type             X           Y           Z
 ---------------------------------------------------------------------
      1          6           0       -3.844372   -1.046577   -0.000148
      2          6           0       -3.757227    0.351525    0.000007
      3          6           0       -4.851744    1.202607    0.000086
      4          6           0       -6.102365    0.590837   -0.000001
      5          6           0       -6.231409   -0.813286   -0.000159
      6          6           0       -5.114432   -1.634178   -0.000233
      7          6           0       -2.483123   -1.513629   -0.000180
      8          6           0       -1.696008   -0.406587   -0.000044
      9          1           0       -4.753152    2.281762    0.000207
     10          1           0       -7.224980   -1.253705   -0.000224
     11          1           0       -5.230535   -2.713191   -0.000354
     12          1           0       -2.148875   -2.541117   -0.000299
     13          8           0       -7.188556    1.408872    0.000074
     14          1           0       -7.995062    0.876979    0.000001
     15          8           0       -2.457372    0.741781    0.000071
     16          6           0       -0.248581   -0.218794   -0.000013
     17          6           0        0.296437    1.065806   -0.000037
     18          6           0        0.603916   -1.324058    0.000036
     19          6           0        1.677584    1.230557   -0.000017
     20          1           0       -0.353518    1.934644   -0.000076
     21          6           0        1.984254   -1.144838    0.000053
     22          1           0        0.200704   -2.332564    0.000071
     23          6           0        2.572495    0.137888    0.000027
     24          8           0        2.813483   -2.217804    0.000102
     25          1           0        2.290156   -3.030393    0.000120
     26          8           0        2.225322    2.473553   -0.000042
     27          1           0        1.520389    3.134008   -0.000064
     28          6           0        4.009933    0.418330    0.000047
     29          1           0        4.234112    1.480562    0.000052
     30          6           0        5.048340   -0.439393    0.000058
     31          1           0        4.876403   -1.509546    0.000051
     32          6           0        6.455850   -0.020076    0.000078
     33          6           0        7.420918   -0.951845    0.000088
     34          1           0        7.184131   -2.013111    0.000082
     35          1           0        8.473970   -0.683970    0.000103
     36          6           0        6.788455    1.450566    0.000087
     37          1           0        6.369849    1.950549   -0.881292
     38          1           0        6.369827    1.950543    0.881459
     39          1           0        7.870044    1.608206    0.000102
 ---------------------------------------------------------------------

 SCF Done:  E(RwB97XD) =  -1034.46415398     A.U. after   15 cycles

 The electronic state is 1-A.
 Alpha  occ. eigenvalues --  -19.32397 -19.29347 -19.29191 -19.28915 -10.36966
 Alpha  occ. eigenvalues --  -10.36809 -10.36562 -10.36203 -10.35813 -10.32489
 Alpha  occ. eigenvalues --  -10.30752 -10.30644 -10.30328 -10.30242 -10.29935
 Alpha  occ. eigenvalues --  -10.29793 -10.29714 -10.29541 -10.29506 -10.29372
 Alpha  occ. eigenvalues --  -10.28819 -10.27832 -10.27724  -1.23137  -1.18612
 Alpha  occ. eigenvalues --   -1.18323  -1.17918  -0.97946  -0.97094  -0.93434
 Alpha  occ. eigenvalues --   -0.91829  -0.89565  -0.86582  -0.85061  -0.84893
 Alpha  occ. eigenvalues --   -0.81907  -0.78975  -0.75938  -0.75497  -0.73028
 Alpha  occ. eigenvalues --   -0.71021  -0.69995  -0.67832  -0.67150  -0.64452
 Alpha  occ. eigenvalues --   -0.63028  -0.61714  -0.60029  -0.59183  -0.58106
 Alpha  occ. eigenvalues --   -0.57187  -0.57059  -0.56051  -0.55060  -0.54142
 Alpha  occ. eigenvalues --   -0.53544  -0.53316  -0.52604  -0.51109  -0.50602
 Alpha  occ. eigenvalues --   -0.50484  -0.49848  -0.49606  -0.48619  -0.47959
 Alpha  occ. eigenvalues --   -0.47723  -0.46678  -0.46183  -0.45099  -0.44811
 Alpha  occ. eigenvalues --   -0.44196  -0.43560  -0.42802  -0.41156  -0.41039
 Alpha  occ. eigenvalues --   -0.37891  -0.35295  -0.33065  -0.31111  -0.30218
 Alpha  occ. eigenvalues --   -0.26753
 Alpha virt. eigenvalues --   -0.01226   0.03617   0.03863   0.04442   0.04919
 Alpha virt. eigenvalues --    0.05115   0.05569   0.05737   0.06166   0.06324
 Alpha virt. eigenvalues --    0.06758   0.07528   0.07702   0.07983   0.08344

 Mulliken charges:
               1
     1  C    0.582053
     2  C    0.308115
     3  C   -0.753347
     4  C   -0.590517
     5  C   -0.002775
     6  C   -0.411056
     7  C   -0.144219
     8  C    0.216283
     9  H    0.256731
    10  H    0.232153
    11  H    0.247097
    12  H    0.252554
    13  O   -0.260129
    14  H    0.317436
    15  O    0.023796
    16  C    0.782526
    17  C   -0.618005
    18  C   -1.334794
    19  C   -0.924526
    20  H    0.226032
    21  C   -1.774075
    22  H    0.145924
    23  C    2.115131
    24  O   -0.216107
    25  H    0.323557
    26  O   -0.214750
    27  H    0.317077
    28  C    0.890652
    29  H    0.196468
    30  C   -0.179478
    31  H    0.222495
    32  C    0.316610
    33  C   -0.568046
    34  H    0.199949
    35  H    0.195062
    36  C   -0.919304
    37  H    0.178464
    38  H    0.178464
    39  H    0.186500
 Sum of Mulliken charges =  -0.00000

 Dipole moment (field-independent basis, Debye):
    X=             -4.6832    Y=             -2.7215    Z=             -0.0004  Tot=              5.4165
 Quadrupole moment (field-independent basis, Debye-Ang):
   XX=           -116.4409   YY=           -110.5822   ZZ=           -143.3909
   XY=             13.5150   XZ=              0.0021   YZ=              0.0004

 Normal termination of Gaussian 16 at Tue Jul 11 13:47:31 2023.
