 Gaussian 16, Revision A.03,
 Gaussian 16:  ES64L-G16RevA.03 25-Dec-2016

 ----------------------------------------------------------------------
 # wb97xd/6-31G(d) opt freq=noraman integral(ultrafinegrid) scrf=(cpcm,
 read,solvent=water)
 ----------------------------------------------------------------------

 Candidate Structure: MaDA-4, Conformer: 1, geometry optimization and f
 requency calculation with water solvation
 ----------------------------------------------------------------------
 Symbolic Z-matrix:
 Charge =  0 Multiplicity = 1

 SCF Done:  E(RwB97XD) =  -1034.18789647     A.U. after   14 cycles
 SCF Done:  E(RwB97XD) =  -1034.18799049     A.U. after   10 cycles
 SCF Done:  E(RwB97XD) =  -1034.18799731     A.U. after    9 cycles
 SCF Done:  E(RwB97XD) =  -1034.18799806     A.U. after    9 cycles
 SCF Done:  E(RwB97XD) =  -1034.18799853     A.U. after    7 cycles
 Optimization completed.
    -- Stationary point found.
 Normal termination of Gaussian 16 at Tue Jul 11 12:14:45 2023.

 ---------------------------------------------------------------------
 #N Geom=AllCheck Guess=TCheck SCRF=Check GenChk RwB97XD/6-31G(d) Freq
 ---------------------------------------------------------------------

 ----------------------------------------------------------------------
 Candidate Structure: MaDA-4, Conformer: 1, geometry optimization and f
 requency calculation with water solvation
 ----------------------------------------------------------------------
 Charge =  0 Multiplicity = 1

                         Standard orientation:
 ---------------------------------------------------------------------
 Center     Atomic      Atomic             Coordinates (Angstroms)
 Number     Number       Type             X           Y           Z
 ---------------------------------------------------------------------
      1          6           0       -3.844372   -1.046577   -0.000148
      2          6           0       -3.757227    0.351525    0.000007
      3          6           0       -4.851744    1.202607    0.000086
      4          6           0       -6.102365    0.590837   -0.000001
      5          6           0       -6.231409   -0.813286   -0.000159
      6          6           0       -5.114432   -1.634178   -0.000233
      7          6           0       -2.483123   -1.513629   -0.000180
      8          6           0       -1.696008   -0.406587   -0.000044
      9          1           0       -4.753152    2.281762    0.000207
     10          1           0       -7.224980   -1.253705   -0.000224
     11          1           0       -5.230535   -2.713191   -0.000354
     12          1           0       -2.148875   -2.541117   -0.000299
     13          8           0       -7.188556    1.408872    0.000074
     14          1           0       -7.995062    0.876979    0.000001
     15          8           0       -2.457372    0.741781    0.000071
     16          6           0       -0.248581   -0.218794   -0.000013
     17          6           0        0.296437    1.065806   -0.000037
     18          6           0        0.603916   -1.324058    0.000036
     19          6           0        1.677584    1.230557   -0.000017
     20          1           0       -0.353518    1.934644   -0.000076
     21          6           0        1.984254   -1.144838    0.000053
     22          1           0        0.200704   -2.332564    0.000071
     23          6           0        2.572495    0.137888    0.000027
     24          8           0        2.813483   -2.217804    0.000102
     25          1           0        2.290156   -3.030393    0.000120
     26          8           0        2.225322    2.473553   -0.000042
     27          1           0        1.520389    3.134008   -0.000064
     28          6           0        4.009933    0.418330    0.000047
     29          1           0        4.234112    1.480562    0.000052
     30          6           0        5.048340   -0.439393    0.000058
     31          1           0        4.876403   -1.509546    0.000051
     32          6           0        6.455850   -0.020076    0.000078
     33          6           0        7.420918   -0.951845    0.000088
     34          1           0        7.184131   -2.013111    0.000082
     35          1           0        8.473970   -0.683970    0.000103
     36          6           0        6.788455    1.450566    0.000087
     37          1           0        6.369849    1.950549   -0.881292
     38          1           0        6.369827    1.950543    0.881459
     39          1           0        7.870044    1.608206    0.000102
 ---------------------------------------------------------------------

 SCF Done:  E(RwB97XD) =  -1034.18799853     A.U. after    1 cycles

 The electronic state is 1-A.
 Alpha  occ. eigenvalues --  -19.34265 -19.31123 -19.30949 -19.30555 -10.37583
 Alpha  occ. eigenvalues --  -10.37425 -10.37223 -10.36816 -10.36394 -10.33143
 Alpha  occ. eigenvalues --  -10.31460 -10.31340 -10.30985 -10.30903 -10.30730
 Alpha  occ. eigenvalues --  -10.30545 -10.30526 -10.30349 -10.30233 -10.30156
 Alpha  occ. eigenvalues --  -10.29500 -10.28882 -10.28676  -1.22169  -1.17549
 Alpha  occ. eigenvalues --   -1.17250  -1.16763  -0.96990  -0.96128  -0.92483
 Alpha  occ. eigenvalues --   -0.90899  -0.88622  -0.85676  -0.84119  -0.83990
 Alpha  occ. eigenvalues --   -0.80952  -0.78346  -0.74967  -0.74550  -0.72061
 Alpha  occ. eigenvalues --   -0.70119  -0.69044  -0.66903  -0.66110  -0.63484
 Alpha  occ. eigenvalues --   -0.62114  -0.60835  -0.59067  -0.58318  -0.57110
 Alpha  occ. eigenvalues --   -0.56215  -0.56076  -0.55141  -0.54160  -0.53243
 Alpha  occ. eigenvalues --   -0.52445  -0.52375  -0.51627  -0.50061  -0.49891
 Alpha  occ. eigenvalues --   -0.49606  -0.48670  -0.48603  -0.47632  -0.46870
 Alpha  occ. eigenvalues --   -0.46725  -0.45782  -0.45284  -0.44227  -0.43934
 Alpha  occ. eigenvalues --   -0.43078  -0.42581  -0.41710  -0.40231  -0.40035
 Alpha  occ. eigenvalues --   -0.36800  -0.34253  -0.32074  -0.30028  -0.29078
 Alpha  occ. eigenvalues --   -0.25683
 Alpha virt. eigenvalues --    0.00157   0.05386   0.07808   0.08336   0.10358
 Alpha virt. eigenvalues --    0.14937   0.15943   0.17153   0.17861   0.17935
 Alpha virt. eigenvalues --    0.18595   0.19112   0.19884   0.21671   0.21843

 Mulliken charges:
               1
     1  C    0.044861
     2  C    0.351257
     3  C   -0.300222
     4  C    0.350634
     5  C   -0.261294
     6  C   -0.240896
     7  C   -0.270530
     8  C    0.281789
     9  H    0.204750
    10  H    0.193555
    11  H    0.201327
    12  H    0.216824
    13  O   -0.681676
    14  H    0.453002
    15  O   -0.549200
    16  C    0.051896
    17  C   -0.307078
    18  C   -0.306289
    19  C    0.300781
    20  H    0.199342
    21  C    0.298490
    22  H    0.194694
    23  C    0.045398
    24  O   -0.672223
    25  H    0.457486
    26  O   -0.677082
    27  H    0.457465
    28  C   -0.219153
    29  H    0.181067
    30  C   -0.214691
    31  H    0.187929
    32  C    0.198950
    33  C   -0.486445
    34  H    0.173525
    35  H    0.172052
    36  C   -0.581018
    37  H    0.183813
    38  H    0.183813
    39  H    0.183097
 Sum of Mulliken charges =  -0.00000

 Dipole moment (field-independent basis, Debye):
    X=             -4.7391    Y=             -2.5303    Z=             -0.0003  Tot=              5.3723
 Quadrupole moment (field-independent basis, Debye-Ang):
   XX=           -112.0929   YY=           -107.5585   ZZ=           -139.1333
   XY=             11.6340   XZ=              0.0019   YZ=              0.0003

  Exact polarizability: 618.058 -24.584 301.375   0.008   0.007  94.443
 Approx polarizability: 395.693 -17.911 272.387   0.005   0.006  99.950

 ******    1 imaginary frequencies (negative Signs) ******

                      1                      2                      3
                      A                      A                      A
 Frequencies --    -15.0307                20.1889                26.9107
 Red. masses --      3.2313                 5.5688                 4.5211
 Frc consts  --      0.0004                 0.0013                 0.0019
 IR Inten    --      0.5161                 0.6462                 1.4828

                      4                      5                      6
                      A                      A                      A
 Frequencies --     51.3891                63.9928               112.1394
 Red. masses --      5.4555                 7.0512                 4.9212
 Frc consts  --      0.0085                 0.0170                 0.0365
 IR Inten    --      0.3693                 0.1281                 0.5753

                      7                      8                      9
                      A                      A                      A
 Frequencies --    136.8770               150.5823               183.4990
 Red. masses --      3.7288                 5.4925                 5.6476
 Frc consts  --      0.0412                 0.0734                 0.1120
 IR Inten    --      6.8755                 0.4634                 0.5515

                     10                     11                     12
                      A                      A                      A
 Frequencies --    186.0361               210.8084               231.3573
 Red. masses --      2.7453                 5.4102                 4.0663
 Frc consts  --      0.0560                 0.1417                 0.1282
 IR Inten    --      0.2176                 0.0895                 0.0172

                     13                     14                     15
                      A                      A                      A
 Frequencies --    240.7458               249.9191               266.4581
 Red. masses --      1.0668                 5.5099                 5.3065
 Frc consts  --      0.0364                 0.2028                 0.2220
 IR Inten    --      1.5796                 1.0188                10.3654

                     16                     17                     18
                      A                      A                      A
 Frequencies --    291.1676               303.2941               334.9753
 Red. masses --      5.2213                 5.3256                 1.6590
 Frc consts  --      0.2608                 0.2886                 0.1097
 IR Inten    --      7.1531                 9.0613               296.2723

                     19                     20                     21
                      A                      A                      A
 Frequencies --    338.5900               368.4342               375.5754
 Red. masses --      1.1610                 1.5361                 1.7061
 Frc consts  --      0.0784                 0.1229                 0.1418
 IR Inten    --     15.3565                39.0187                53.7810

                     22                     23                     24
                      A                      A                      A
 Frequencies --    394.3174               402.1340               404.0849
 Red. masses --      5.4023                 5.0594                 2.2619
 Frc consts  --      0.4949                 0.4820                 0.2176
 IR Inten    --      0.8776                 5.7357               106.3290

                     25                     26                     27
                      A                      A                      A
 Frequencies --    452.3208               471.5199               476.2356
 Red. masses --      2.9811                 4.8010                 2.8264
 Frc consts  --      0.3593                 0.6289                 0.3777
 IR Inten    --      2.4567                14.0062                 6.0715

                     28                     29                     30
                      A                      A                      A
 Frequencies --    499.4836               524.3460               532.8419
 Red. masses --      5.1521                 3.0197                 5.7717
 Frc consts  --      0.7573                 0.4892                 0.9655
 IR Inten    --     11.1032                 0.9260                 4.9489

                     31                     32                     33
                      A                      A                      A
 Frequencies --    569.5423               573.8514               606.5869
 Red. masses --      7.0842                 5.4973                 4.8510
 Frc consts  --      1.3539                 1.0666                 1.0517
 IR Inten    --      4.3233                 5.6296                 5.3641

                     34                     35                     36
                      A                      A                      A
 Frequencies --    627.5073               633.0412               648.6580
 Red. masses --      4.2200                 6.1131                 3.4599
 Frc consts  --      0.9790                 1.4434                 0.8577
 IR Inten    --      0.0019                 2.6008                 8.8606

                     37                     38                     39
                      A                      A                      A
 Frequencies --    653.8276               698.0384               711.6918
 Red. masses --      4.0722                 3.0591                 1.4206
 Frc consts  --      1.0257                 0.8782                 0.4240
 IR Inten    --     27.2936                 6.0775                 0.1784

                     40                     41                     42
                      A                      A                      A
 Frequencies --    748.8990               755.4659               774.3315
 Red. masses --      4.3723                 2.5493                 7.0654
 Frc consts  --      1.4448                 0.8572                 2.4960
 IR Inten    --     13.3785                 1.0642                 1.8622

                     43                     44                     45
                      A                      A                      A
 Frequencies --    811.3287               816.0043               824.8680
 Red. masses --      6.4256                 1.3838                 1.5410
 Frc consts  --      2.4921                 0.5429                 0.6178
 IR Inten    --     20.8125                 2.5856                65.8449

                     46                     47                     48
                      A                      A                      A
 Frequencies --    841.9075               849.1024               854.8891
 Red. masses --      1.5501                 4.6073                 1.5175
 Frc consts  --      0.6473                 1.9571                 0.6534
 IR Inten    --    103.3836                10.9303                24.4906

                     49                     50                     51
                      A                      A                      A
 Frequencies --    858.1087               871.1485               902.9173
 Red. masses --      1.5061                 3.4532                 5.1114
 Frc consts  --      0.6534                 1.5440                 2.4552
 IR Inten    --     21.9965                 0.6935                25.8555

                     52                     53                     54
                      A                      A                      A
 Frequencies --    905.4269               935.8225               963.7615
 Red. masses --      1.8676                 1.4017                 1.2997
 Frc consts  --      0.9021                 0.7233                 0.7113
 IR Inten    --      7.3673                56.2186                 1.8530

                     55                     56                     57
                      A                      A                      A
 Frequencies --    979.1375              1009.2189              1010.1110
 Red. masses --      3.7040                 3.8301                 1.5665
 Frc consts  --      2.0922                 2.2984                 0.9417
 IR Inten    --     20.7974                45.6542                10.5853

                     58                     59                     60
                      A                      A                      A
 Frequencies --   1031.0505              1055.0076              1085.6517
 Red. masses --      1.1053                 1.6673                 1.4991
 Frc consts  --      0.6923                 1.0934                 1.0410
 IR Inten    --     58.3322                41.2661                 0.2670

                     61                     62                     63
                      A                      A                      A
 Frequencies --   1086.3217              1119.1068              1167.2229
 Red. masses --      3.5326                 2.1956                 1.5774
 Frc consts  --      2.4562                 1.6201                 1.2662
 IR Inten    --    200.3025                44.2846               191.9137

                     64                     65                     66
                      A                      A                      A
 Frequencies --   1190.2316              1204.0141              1231.2793
 Red. masses --      1.5506                 1.9874                 1.4344
 Frc consts  --      1.2942                 1.6974                 1.2813
 IR Inten    --    172.7574               126.1030                12.4628

                     67                     68                     69
                      A                      A                      A
 Frequencies --   1239.6293              1246.3252              1255.9036
 Red. masses --      1.5142                 1.9272                 2.0313
 Frc consts  --      1.3709                 1.7638                 1.8877
 IR Inten    --     50.2732                 6.7990                28.8130

                     70                     71                     72
                      A                      A                      A
 Frequencies --   1280.1561              1310.9449              1325.4366
 Red. masses --      1.8222                 2.8288                 1.8565
 Frc consts  --      1.7595                 2.8643                 1.9216
 IR Inten    --     94.1129                37.8427                59.2577

                     73                     74                     75
                      A                      A                      A
 Frequencies --   1356.9109              1361.8689              1363.0193
 Red. masses --      1.8161                 3.6700                 2.5271
 Frc consts  --      1.9701                 4.0104                 2.7662
 IR Inten    --    140.5548                 1.2774               252.5463

                     76                     77                     78
                      A                      A                      A
 Frequencies --   1366.4233              1387.3632              1398.1347
 Red. masses --      2.1511                 1.3429                 3.2002
 Frc consts  --      2.3663                 1.5229                 3.6858
 IR Inten    --     79.7136                23.7518               111.0118

                     79                     80                     81
                      A                      A                      A
 Frequencies --   1413.2017              1427.1172              1442.7914
 Red. masses --      3.7924                 5.9978                 1.3515
 Frc consts  --      4.4624                 7.1972                 1.6576
 IR Inten    --    186.0852                46.2975                15.0450

                     82                     83                     84
                      A                      A                      A
 Frequencies --   1473.9317              1496.5763              1509.8007
 Red. masses --      1.2754                 3.9612                 1.0427
 Frc consts  --      1.6325                 5.2272                 1.4004
 IR Inten    --     13.6640               235.8686                12.0329

                     85                     86                     87
                      A                      A                      A
 Frequencies --   1512.8646              1529.6907              1573.8741
 Red. masses --      3.5335                 1.0744                 3.4337
 Frc consts  --      4.7649                 1.4812                 5.0114
 IR Inten    --     93.3272                13.2652                93.1360

                     88                     89                     90
                      A                      A                      A
 Frequencies --   1590.4411              1656.2888              1672.2018
 Red. masses --      2.9826                 6.0419                 7.4422
 Frc consts  --      4.4451                 9.7655                12.2611
 IR Inten    --     24.8769               199.0378                 0.4749

                     91                     92                     93
                      A                      A                      A
 Frequencies --   1683.2172              1698.8576              1711.0023
 Red. masses --      7.3400                 6.4968                 5.0733
 Frc consts  --     12.2526                11.0475                 8.7507
 IR Inten    --     81.7056               355.8973                 0.3912

                     94                     95                     96
                      A                      A                      A
 Frequencies --   1718.5588              1741.6888              3063.1349
 Red. masses --      7.1654                 5.3126                 1.0378
 Frc consts  --     12.4687                 9.4951                 5.7371
 IR Inten    --    150.1098                22.8186                30.1704

                     97                     98                     99
                      A                      A                      A
 Frequencies --   3126.4496              3161.3167              3177.7791
 Red. masses --      1.1009                 1.1020                 1.0612
 Frc consts  --      6.3404                 6.4889                 6.3136
 IR Inten    --     27.2671                38.0285                19.4381

                    100                    101                    102
                      A                      A                      A
 Frequencies --   3211.2920              3220.7485              3226.6588
 Red. masses --      1.0900                 1.0916                 1.0886
 Frc consts  --      6.6229                 6.6713                 6.6774
 IR Inten    --     19.4849                 8.9532                23.5702

                    103                    104                    105
                      A                      A                      A
 Frequencies --   3237.4408              3237.7505              3254.3485
 Red. masses --      1.0948                 1.0917                 1.0895
 Frc consts  --      6.7607                 6.7427                 6.7981
 IR Inten    --     22.2847                 2.9532                 0.9871

                    106                    107                    108
                      A                      A                      A
 Frequencies --   3257.3848              3262.2469              3298.2469
 Red. masses --      1.0938                 1.1164                 1.0978
 Frc consts  --      6.8378                 6.9999                 7.0359
 IR Inten    --      4.1137                20.6305                 7.3636

                    109                    110                    111
                      A                      A                      A
 Frequencies --   3826.4701              3834.0413              3838.9748
 Red. masses --      1.0663                 1.0664                 1.0663
 Frc consts  --      9.1985                 9.2359                 9.2586
 IR Inten    --    124.9188               190.1589               143.1571

 - Thermochemistry -
 -------------------
 Temperature   298.150 Kelvin.  Pressure   1.00000 Atm.
 Atom     1 has atomic number  6 and mass  12.00000

 Molecular mass:   308.10486 amu.
 Principal axes and moments of inertia in atomic units:
                           1         2         3
     Eigenvalues --  1797.58758********************
           X            0.99999   0.00428  -0.00001
           Y           -0.00428   0.99999  -0.00002
           Z            0.00001   0.00002   1.00000
 This molecule is an asymmetric top.
 Rotational symmetry number  1.
 Warning -- assumption of classical behavior for rotation
           may cause significant error
 Rotational temperatures (Kelvin)      0.04818     0.00407     0.00375
 Rotational constants (GHZ):           1.00398     0.08475     0.07819
    1 imaginary frequencies ignored.
 Zero-point vibrational energy     812765.7 (Joules/Mol)
                                  194.25566 (Kcal/Mol)
 Warning -- explicit consideration of  32 degrees of freedom as
           vibrations may cause significant error
 Vibrational temperatures:     29.05    38.72    73.94    92.07   161.34
          (Kelvin)            196.94   216.65   264.01   267.66   303.31
                              332.87   346.38   359.58   383.37   418.93
                              436.37   481.95   487.16   530.09   540.37
                              567.33   578.58   581.39   650.79   678.41
                              685.20   718.65   754.42   766.64   819.44
                              825.64   872.74   902.84   910.81   933.27
                              940.71  1004.32  1023.97  1077.50  1086.95
                             1114.09  1167.32  1174.05  1186.80  1211.32
                             1221.67  1229.99  1234.63  1253.39  1299.10
                             1302.71  1346.44  1386.64  1408.76  1452.04
                             1453.32  1483.45  1517.92  1562.01  1562.97
                             1610.15  1679.37  1712.48  1732.31  1771.54
                             1783.55  1793.18  1806.97  1841.86  1886.16
                             1907.01  1952.29  1959.43  1961.08  1965.98
                             1996.11  2011.60  2033.28  2053.30  2075.86
                             2120.66  2153.24  2172.27  2176.67  2200.88
                             2264.45  2288.29  2383.03  2405.93  2421.77
                             2444.28  2461.75  2472.62  2505.90  4407.17
                             4498.26  4548.43  4572.12  4620.33  4633.94
                             4642.44  4657.96  4658.40  4682.28  4686.65
                             4693.65  4745.44  5505.44  5516.33  5523.43

 Zero-point correction=                           0.309566 (Hartree/Particle)
 Thermal correction to Energy=                    0.328905
 Thermal correction to Enthalpy=                  0.329849
 Thermal correction to Gibbs Free Energy=         0.261318
 Sum of electronic and zero-point Energies=          -1033.878432
 Sum of electronic and thermal Energies=             -1033.859093
 Sum of electronic and thermal Enthalpies=           -1033.858149
 Sum of electronic and thermal Free Energies=        -1033.926681

                     E (Thermal)             CV                S
                      KCal/Mol        Cal/Mol-Kelvin    Cal/Mol-Kelvin
 Total                  206.391             77.387            144.237
 Electronic               0.000              0.000              0.000
 Translational            0.889              2.981             43.072
 Rotational               0.889              2.981             35.134
 Vibrational            204.614             71.426             66.031
 Vibration     1          0.593              1.986              6.616
 Vibration     2          0.593              1.984              6.045
 Vibration     3          0.596              1.977              4.763
 Vibration     4          0.597              1.971              4.330
 Vibration     5          0.607              1.939              3.232
 Vibration     6          0.614              1.917              2.847
 Vibration     7          0.618              1.902              2.665
 Vibration     8          0.631              1.862              2.293
 Vibration     9          0.632              1.859              2.267
 Vibration    10          0.643              1.824              2.037
 Vibration    11          0.653              1.793              1.868
 Vibration    12          0.658              1.778              1.797
 Vibration    13          0.663              1.763              1.731
 Vibration    14          0.672              1.735              1.619
 Vibration    15          0.687              1.690              1.467
 Vibration    16          0.695              1.667              1.399
 Vibration    17          0.716              1.606              1.236
 Vibration    18          0.719              1.598              1.219
 Vibration    19          0.741              1.537              1.086
 Vibration    20          0.746              1.522              1.057
 Vibration    21          0.761              1.482              0.984
 Vibration    22          0.768              1.466              0.955
 Vibration    23          0.769              1.461              0.948
 Vibration    24          0.811              1.356              0.789
 Vibration    25          0.828              1.313              0.733
 Vibration    26          0.833              1.303              0.720
 Vibration    27          0.855              1.251              0.659
 Vibration    28          0.879              1.196              0.600
 Vibration    29          0.888              1.177              0.581
 Vibration    30          0.926              1.097              0.505
 Vibration    31          0.930              1.088              0.497
 Vibration    32          0.965              1.018              0.438

 Optimization completed.
    -- Stationary point found.
 Normal termination of Gaussian 16 at Tue Jul 11 12:26:17 2023.
