 Gaussian 16, Revision A.03,
 Gaussian 16:  ES64L-G16RevA.03 25-Dec-2016

 ----------------------------------------------------------------------
 # wb97xd/6-311++G(d,p) integral(ultrafinegrid) guess=read geom=check s
 crf=(cpcm,read,solvent=water)
 ----------------------------------------------------------------------

 Candidate Structure: MaDA-exo-1, Conformer: 1, Single-point energies c
 alculated with wB97X-D/6-311++G(d,p)
 ----------------------------------------------------------------------
 Structure from the checkpoint file:  "MaDA-exo-1-conf-1.chk"
 Charge =  0 Multiplicity = 1

                         Standard orientation:
 ---------------------------------------------------------------------
 Center     Atomic      Atomic             Coordinates (Angstroms)
 Number     Number       Type             X           Y           Z
 ---------------------------------------------------------------------
      1          6           0        6.868461    1.655005   -0.280296
      2          6           0        6.181631    2.726730   -0.849981
      3          6           0        4.825393    2.608523   -1.144151
      4          6           0        4.170760    1.412279   -0.856775
      5          6           0        4.821978    0.324193   -0.279910
      6          6           0        6.192037    0.469792   -0.005275
      7          6           0        4.133532   -0.994842    0.011932
      8          6           0        2.637117   -0.853745    0.316557
      9          8           0        6.833870   -0.600136    0.541576
     10          8           0        6.896190    3.858807   -1.092800
     11          6           0        2.380150    0.122755    1.463031
     12          6           0        1.109584    0.900942    1.555432
     13          8           0        3.183603    0.175988    2.384660
     14          6           0        0.660070    1.185026    2.852386
     15          6           0       -0.555865    1.792310    3.090857
     16          6           0       -1.339758    2.199440    2.005216
     17          6           0       -0.905676    2.005984    0.690831
     18          6           0        0.295285    1.312018    0.484233
     19          8           0        0.714281    1.098010   -0.792120
     20          8           0       -2.530481    2.822041    2.183664
     21          6           0       -1.665756    2.590016   -0.485125
     22          6           0       -2.236766    1.547305   -1.413017
     23          6           0       -1.959110    1.344947   -2.709987
     24          6           0       -2.646735    0.240449   -3.471914
     25          6           0       -0.986222    2.155166   -3.530065
     26          8           0       -4.330988   -1.267591   -0.480740
     27          6           0       -3.607024   -1.009725    0.664239
     28          6           0       -4.318372   -0.248421    1.533313
     29          6           0       -6.556973   -0.651955   -1.263684
     30          6           0       -5.531251   -0.648370   -0.331334
     31          6           0       -5.590385    0.004237    0.906746
     32          6           0       -6.755166    0.707768    1.231136
     33          6           0       -7.801283    0.727864    0.321231
     34          6           0       -7.704792    0.054068   -0.913143
     35          6           0        4.327240   -1.967286   -1.161511
     36          6           0        4.015108   -4.413658   -1.844761
     37          6           0        3.564145   -3.257617   -0.996945
     38          6           0        2.545062   -3.356526   -0.134690
     39          6           0        2.029160   -2.229104    0.732754
     40          8           0        0.498010   -2.021779    3.067006
     41          6           0       -0.205138   -2.059973   -0.487614
     42          6           0        0.513119   -2.133260    0.714982
     43          6           0       -0.202653   -1.931951    1.903992
     44          6           0       -1.555170   -1.611186    1.902811
     45          6           0       -2.228957   -1.489039    0.686507
     46          6           0       -1.563555   -1.754551   -0.507401
     47          8           0       -8.722466    0.063310   -1.815573
     48          8           0        0.388000   -2.216697   -1.700445
     49          1           0        7.926862    1.758600   -0.057371
     50          1           0        4.282912    3.437720   -1.589856
     51          1           0        3.111322    1.341368   -1.088010
     52          1           0        4.611910   -1.435067    0.892640
     53          1           0        2.109116   -0.523229   -0.577921
     54          1           0        7.762092   -0.377841    0.690764
     55          1           0        6.315228    4.525165   -1.482707
     56          1           0        1.280659    0.869587    3.683458
     57          1           0       -0.899430    1.962439    4.107229
     58          1           0       -0.068938    0.987683   -1.360346
     59          1           0       -2.701727    2.928580    3.128818
     60          1           0       -2.487558    3.196053   -0.094266
     61          1           0       -1.002231    3.275562   -1.023455
     62          1           0       -2.962763    0.887083   -0.944154
     63          1           0       -3.395607   -0.270620   -2.859942
     64          1           0       -3.143691    0.637955   -4.365476
     65          1           0       -1.916364   -0.501729   -3.819112
     66          1           0       -0.425757    2.890498   -2.948706
     67          1           0       -0.265056    1.493761   -4.025798
     68          1           0       -1.520437    2.689929   -4.324687
     69          1           0       -3.965659    0.132798    2.480673
     70          1           0       -6.480925   -1.167431   -2.213985
     71          1           0       -6.845539    1.231725    2.177242
     72          1           0       -8.712198    1.270863    0.558772
     73          1           0        4.022182   -1.482465   -2.100652
     74          1           0        5.395533   -2.190135   -1.271974
     75          1           0        3.375903   -5.291275   -1.713039
     76          1           0        4.010472   -4.136901   -2.906228
     77          1           0        5.045996   -4.693026   -1.595095
     78          1           0        2.029706   -4.309936   -0.018386
     79          1           0        2.337594   -2.437577    1.763095
     80          1           0       -0.060909   -1.728869    3.798595
     81          1           0       -2.071612   -1.433015    2.841240
     82          1           0       -2.068288   -1.673830   -1.462083
     83          1           0       -9.462508    0.575404   -1.464294
     84          1           0        1.280207   -2.589080   -1.580412
 ---------------------------------------------------------------------

 SCF Done:  E(RwB97XD) =  -2184.77413471     A.U. after   15 cycles

 The electronic state is 1-A.
 Alpha  occ. eigenvalues --  -19.32326 -19.29370 -19.28868 -19.28819 -19.28695
 Alpha  occ. eigenvalues --  -19.28664 -19.28605 -19.28086 -19.24043 -10.38488
 Alpha  occ. eigenvalues --  -10.36918 -10.36830 -10.36486 -10.36189 -10.35982
 Alpha  occ. eigenvalues --  -10.35893 -10.35888 -10.35876 -10.35710 -10.31754
 Alpha  occ. eigenvalues --  -10.31283 -10.30567 -10.30525 -10.30371 -10.30243
 Alpha  occ. eigenvalues --  -10.30212 -10.30170 -10.29980 -10.29818 -10.29787
 Alpha  occ. eigenvalues --  -10.29761 -10.29726 -10.29680 -10.29671 -10.29653
 Alpha  occ. eigenvalues --  -10.29457 -10.29211 -10.29196 -10.28993 -10.28862
 Alpha  occ. eigenvalues --  -10.28823 -10.28804 -10.28659 -10.28589 -10.28562
 Alpha  occ. eigenvalues --  -10.28106 -10.28012 -10.27728  -1.22979  -1.18511
 Alpha  occ. eigenvalues --   -1.17975  -1.17886  -1.17855  -1.17738  -1.17513
 Alpha  occ. eigenvalues --   -1.17209  -1.15169  -0.97903  -0.97252  -0.96947
 Alpha  occ. eigenvalues --   -0.96737  -0.95411  -0.93075  -0.91934  -0.90080
 Alpha  occ. eigenvalues --   -0.89428  -0.88958  -0.86890  -0.86103  -0.85570
 Alpha  occ. eigenvalues --   -0.85074  -0.84676  -0.83167  -0.82525  -0.81711
 Alpha  occ. eigenvalues --   -0.80017  -0.79574  -0.76290  -0.75445  -0.75079
 Alpha  occ. eigenvalues --   -0.73946  -0.73558  -0.73205  -0.72685  -0.71871
 Alpha  occ. eigenvalues --   -0.71042  -0.70444  -0.69508  -0.69013  -0.67098
 Alpha  occ. eigenvalues --   -0.66325  -0.66254  -0.64590  -0.64078  -0.62721
 Alpha  occ. eigenvalues --   -0.61972  -0.61503  -0.60490  -0.60284  -0.59958
 Alpha  occ. eigenvalues --   -0.59736  -0.59354  -0.58699  -0.58251  -0.57706
 Alpha  occ. eigenvalues --   -0.57264  -0.56509  -0.56386  -0.56015  -0.55750
 Alpha  occ. eigenvalues --   -0.55164  -0.55088  -0.54009  -0.53943  -0.53182
 Alpha  occ. eigenvalues --   -0.52841  -0.52684  -0.52552  -0.52458  -0.52013
 Alpha  occ. eigenvalues --   -0.51702  -0.51581  -0.51102  -0.51086  -0.50902
 Alpha  occ. eigenvalues --   -0.50620  -0.50340  -0.50192  -0.50014  -0.49478
 Alpha  occ. eigenvalues --   -0.49210  -0.49001  -0.48751  -0.48467  -0.47823
 Alpha  occ. eigenvalues --   -0.47621  -0.47489  -0.47295  -0.46995  -0.46638
 Alpha  occ. eigenvalues --   -0.46449  -0.46096  -0.45936  -0.45862  -0.45256
 Alpha  occ. eigenvalues --   -0.44871  -0.44715  -0.44156  -0.43952  -0.43756
 Alpha  occ. eigenvalues --   -0.43524  -0.43489  -0.42574  -0.42345  -0.42119
 Alpha  occ. eigenvalues --   -0.41321  -0.40499  -0.40272  -0.40168  -0.37583
 Alpha  occ. eigenvalues --   -0.34644  -0.33685  -0.33057  -0.32963  -0.32328
 Alpha  occ. eigenvalues --   -0.32178  -0.31728  -0.30783  -0.30293  -0.29554
 Alpha  occ. eigenvalues --   -0.27636
 Alpha virt. eigenvalues --    0.00590   0.00895   0.03737   0.04207   0.04368
 Alpha virt. eigenvalues --    0.04595   0.04820   0.05034   0.05115   0.05183
 Alpha virt. eigenvalues --    0.05456   0.05673   0.05828   0.05979   0.06063

 Mulliken charges:
               1
     1  C   -0.087045
     2  C   -0.670517
     3  C   -0.212320
     4  C   -0.181654
     5  C    0.553475
     6  C   -0.360979
     7  C    0.023502
     8  C    0.088966
     9  O   -0.221167
    10  O   -0.276215
    11  C   -0.075144
    12  C    0.013639
    13  O   -0.237372
    14  C   -0.205762
    15  C   -0.450783
    16  C   -0.590204
    17  C    0.704171
    18  C   -0.080020
    19  O   -0.050259
    20  O   -0.187415
    21  C   -1.482035
    22  C    0.715432
    23  C    0.236122
    24  C   -0.857596
    25  C   -0.617678
    26  O    0.060926
    27  C   -0.110486
    28  C   -0.231894
    29  C   -0.504794
    30  C    0.622251
    31  C    0.326169
    32  C   -0.433454
    33  C    0.026695
    34  C   -0.660674
    35  C   -0.502289
    36  C   -0.399123
    37  C   -0.005616
    38  C   -0.448711
    39  C   -0.639850
    40  O   -0.157881
    41  C   -0.330583
    42  C   -0.038879
    43  C   -0.210418
    44  C   -0.562739
    45  C    0.525089
    46  C   -0.374219
    47  O   -0.259424
    48  O   -0.231954
    49  H    0.256190
    50  H    0.254378
    51  H    0.206408
    52  H    0.344840
    53  H    0.197197
    54  H    0.322338
    55  H    0.316337
    56  H    0.259000
    57  H    0.247670
    58  H    0.320378
    59  H    0.330570
    60  H    0.267898
    61  H    0.212374
    62  H    0.185893
    63  H    0.067484
    64  H    0.199442
    65  H    0.213475
    66  H    0.148215
    67  H    0.203765
    68  H    0.227141
    69  H    0.255388
    70  H    0.275897
    71  H    0.255608
    72  H    0.248472
    73  H    0.232725
    74  H    0.237014
    75  H    0.172442
    76  H    0.200966
    77  H    0.203317
    78  H    0.261050
    79  H    0.351279
    80  H    0.310691
    81  H    0.234970
    82  H    0.241407
    83  H    0.314096
    84  H    0.474398
 Sum of Mulliken charges =  -0.00000

 Dipole moment (field-independent basis, Debye):
    X=             -5.4615    Y=              3.6444    Z=              0.9967  Tot=              6.6410
 Quadrupole moment (field-independent basis, Debye-Ang):
   XX=           -248.5167   YY=           -268.7015   ZZ=           -254.6877
   XY=            -28.9103   XZ=            -35.0042   YZ=              1.5354

 Normal termination of Gaussian 16 at Thu Jul 13 09:32:24 2023.
