 Gaussian 16, Revision A.03,
 Gaussian 16:  ES64L-G16RevA.03 25-Dec-2016

 ----------------------------------------------------------------------
 # wb97xd/6-31G(d) opt freq=noraman integral(ultrafinegrid) scrf=(cpcm,
 read,solvent=water)
 ----------------------------------------------------------------------

 Candidate Structure: MaDA-2, Conformer: 1, geometry optimization and f
 requency calculation with water solvation
 ----------------------------------------------------------------------
 Symbolic Z-matrix:
 Charge =  0 Multiplicity = 1

 SCF Done:  E(RwB97XD) =  -1149.92215437     A.U. after   15 cycles
 SCF Done:  E(RwB97XD) =  -1149.92232109     A.U. after   11 cycles
 SCF Done:  E(RwB97XD) =  -1149.92232481     A.U. after   12 cycles
 SCF Done:  E(RwB97XD) =  -1149.92238353     A.U. after   11 cycles
 SCF Done:  E(RwB97XD) =  -1149.92239306     A.U. after   10 cycles
 SCF Done:  E(RwB97XD) =  -1149.92240553     A.U. after   10 cycles
 SCF Done:  E(RwB97XD) =  -1149.92241097     A.U. after   11 cycles
 SCF Done:  E(RwB97XD) =  -1149.92241682     A.U. after    9 cycles
 SCF Done:  E(RwB97XD) =  -1149.92242138     A.U. after   10 cycles
 SCF Done:  E(RwB97XD) =  -1149.92242219     A.U. after    8 cycles
 SCF Done:  E(RwB97XD) =  -1149.92242327     A.U. after    8 cycles
 SCF Done:  E(RwB97XD) =  -1149.92242353     A.U. after    9 cycles
 SCF Done:  E(RwB97XD) =  -1149.92242364     A.U. after    8 cycles
 SCF Done:  E(RwB97XD) =  -1149.92242375     A.U. after    7 cycles
 SCF Done:  E(RwB97XD) =  -1149.92242381     A.U. after    8 cycles
 SCF Done:  E(RwB97XD) =  -1149.92242385     A.U. after    7 cycles
 SCF Done:  E(RwB97XD) =  -1149.92242387     A.U. after    7 cycles
 SCF Done:  E(RwB97XD) =  -1149.92242388     A.U. after    6 cycles
 SCF Done:  E(RwB97XD) =  -1149.92242389     A.U. after    6 cycles
 Optimization completed.
    -- Stationary point found.
 Normal termination of Gaussian 16 at Tue Jul 11 12:49:33 2023.

 ---------------------------------------------------------------------
 #N Geom=AllCheck Guess=TCheck SCRF=Check GenChk RwB97XD/6-31G(d) Freq
 ---------------------------------------------------------------------

 ----------------------------------------------------------------------
 Candidate Structure: MaDA-2, Conformer: 1, geometry optimization and f
 requency calculation with water solvation
 ----------------------------------------------------------------------
 Charge =  0 Multiplicity = 1

                         Standard orientation:
 ---------------------------------------------------------------------
 Center     Atomic      Atomic             Coordinates (Angstroms)
 Number     Number       Type             X           Y           Z
 ---------------------------------------------------------------------
      1          6           0        6.732956    0.499985    0.093638
      2          6           0        6.943166   -0.872833    0.200898
      3          6           0        5.855871   -1.755016    0.242055
      4          6           0        4.573371   -1.242721    0.173328
      5          6           0        4.316916    0.133065    0.062900
      6          6           0        5.434710    0.997173    0.026520
      7          1           0        7.588638    1.167787    0.062760
      8          1           0        6.018981   -2.824809    0.329551
      9          1           0        3.739959   -1.936781    0.212029
     10          8           0        8.225572   -1.294705    0.262701
     11          1           0        8.249845   -2.258528    0.335061
     12          8           0        5.194529    2.324830   -0.079439
     13          1           0        6.030187    2.810132   -0.088276
     14          6           0        2.976143    0.693238   -0.008405
     15          1           0        2.914249    1.777731   -0.032378
     16          6           0        1.810189    0.019203   -0.050679
     17          1           0        1.790787   -1.062903   -0.037802
     18          6           0        0.537749    0.754132   -0.109233
     19          8           0        0.545369    2.002280   -0.047976
     20          6           0       -0.735700    0.026564   -0.229300
     21          6           0       -0.805264   -1.372925   -0.374339
     22          6           0       -1.962323    0.746920   -0.206910
     23          6           0       -2.007833   -2.032746   -0.469727
     24          1           0        0.101961   -1.963190   -0.417360
     25          6           0       -3.202621    0.093248   -0.299057
     26          6           0       -3.204372   -1.299444   -0.422984
     27          1           0       -2.055675   -3.110712   -0.575186
     28          8           0       -1.980536    2.082618   -0.103619
     29          1           0       -1.027808    2.365624   -0.065672
     30          8           0       -4.347711   -2.009958   -0.524032
     31          1           0       -5.101051   -1.452553   -0.255662
     32          6           0       -4.492990    0.889465   -0.311374
     33          1           0       -4.249967    1.931836   -0.086557
     34          1           0       -4.911031    0.884696   -1.324479
     35          6           0       -5.503983    0.395416    0.696063
     36          1           0       -5.111672    0.290068    1.708165
     37          6           0       -6.795174    0.088984    0.493639
     38          6           0       -7.511273    0.181497   -0.829002
     39          1           0       -7.995295   -0.773552   -1.065860
     40          1           0       -8.308361    0.932691   -0.769209
     41          1           0       -6.860180    0.449446   -1.663262
     42          6           0       -7.661538   -0.373856    1.637389
     43          1           0       -7.105889   -0.426867    2.577778
     44          1           0       -8.510166    0.307689    1.775515
     45          1           0       -8.083306   -1.364424    1.427251
 ---------------------------------------------------------------------

 SCF Done:  E(RwB97XD) =  -1149.92242389     A.U. after    1 cycles

 The electronic state is 1-A.
 Alpha  occ. eigenvalues --  -19.31496 -19.31408 -19.30434 -19.29198 -19.26547
 Alpha  occ. eigenvalues --  -10.39839 -10.38158 -10.38086 -10.37810 -10.37537
 Alpha  occ. eigenvalues --  -10.32505 -10.31932 -10.31783 -10.31669 -10.31320
 Alpha  occ. eigenvalues --  -10.30921 -10.30742 -10.30641 -10.30444 -10.30421
 Alpha  occ. eigenvalues --  -10.30295 -10.29993 -10.29692 -10.29235 -10.29020
 Alpha  occ. eigenvalues --   -1.17961  -1.17702  -1.17252  -1.16961  -1.13410
 Alpha  occ. eigenvalues --   -0.96699  -0.96031  -0.92575  -0.90697  -0.88475
 Alpha  occ. eigenvalues --   -0.85878  -0.85374  -0.83608  -0.81890  -0.79164
 Alpha  occ. eigenvalues --   -0.75971  -0.74975  -0.73791  -0.72845  -0.70501
 Alpha  occ. eigenvalues --   -0.69341  -0.66671  -0.65061  -0.63572  -0.61714
 Alpha  occ. eigenvalues --   -0.61357  -0.59872  -0.59193  -0.58370  -0.57215
 Alpha  occ. eigenvalues --   -0.55598  -0.55094  -0.53945  -0.53083  -0.52799
 Alpha  occ. eigenvalues --   -0.52619  -0.52388  -0.51935  -0.51144  -0.50306
 Alpha  occ. eigenvalues --   -0.50046  -0.49358  -0.49198  -0.49032  -0.48616
 Alpha  occ. eigenvalues --   -0.47307  -0.46929  -0.46595  -0.46310  -0.45520
 Alpha  occ. eigenvalues --   -0.45322  -0.44225  -0.43983  -0.43484  -0.42585
 Alpha  occ. eigenvalues --   -0.42492  -0.41633  -0.40453  -0.37097  -0.34770
 Alpha  occ. eigenvalues --   -0.32380  -0.32123  -0.30787  -0.29987  -0.28134
 Alpha virt. eigenvalues --   -0.01496   0.04867   0.06981   0.07537   0.09606
 Alpha virt. eigenvalues --    0.11600   0.15807   0.16504   0.16986   0.17141
 Alpha virt. eigenvalues --    0.17333   0.19339   0.20132   0.20548   0.21347

 Mulliken charges:
               1
     1  C   -0.304106
     2  C    0.365778
     3  C   -0.257928
     4  C   -0.224602
     5  C    0.056669
     6  C    0.315925
     7  H    0.201569
     8  H    0.199530
     9  H    0.199056
    10  O   -0.668899
    11  H    0.458210
    12  O   -0.668645
    13  H    0.460679
    14  C   -0.157450
    15  H    0.205195
    16  C   -0.249232
    17  H    0.189039
    18  C    0.423223
    19  O   -0.613891
    20  C   -0.020780
    21  C   -0.225732
    22  C    0.252265
    23  C   -0.238688
    24  H    0.201404
    25  C    0.021283
    26  C    0.312367
    27  H    0.190208
    28  O   -0.687872
    29  H    0.466672
    30  O   -0.679300
    31  H    0.447612
    32  C   -0.428256
    33  H    0.214896
    34  H    0.195112
    35  C   -0.253673
    36  H    0.171380
    37  C    0.140305
    38  C   -0.564498
    39  H    0.187596
    40  H    0.191868
    41  H    0.183670
    42  C   -0.558896
    43  H    0.183429
    44  H    0.184137
    45  H    0.183371
 Sum of Mulliken charges =  -0.00000

 Dipole moment (field-independent basis, Debye):
    X=              2.9445    Y=             -3.9355    Z=              0.6306  Tot=              4.9554
 Quadrupole moment (field-independent basis, Debye-Ang):
   XX=            -72.6186   YY=           -135.6313   ZZ=           -147.7326
   XY=            -10.1858   XZ=             -0.4015   YZ=             -2.4466

  Exact polarizability: 574.482   9.661 310.130  14.910   1.267 135.935
 Approx polarizability: 375.700   9.670 283.276  10.382   2.672 131.110

                      1                      2                      3
                      A                      A                      A
 Frequencies --     10.7942                12.3278                30.7827
 Red. masses --      5.2929                 5.1402                 3.2315
 Frc consts  --      0.0004                 0.0005                 0.0018
 IR Inten    --      0.4128                 0.8709                 0.4877

                      4                      5                      6
                      A                      A                      A
 Frequencies --     34.2011                47.9621                67.7303
 Red. masses --      4.8182                 4.6817                 5.8975
 Frc consts  --      0.0033                 0.0063                 0.0159
 IR Inten    --      0.8006                 0.3547                 0.2262

                      7                      8                      9
                      A                      A                      A
 Frequencies --     74.7953                81.0077               114.1132
 Red. masses --      3.0858                 2.8837                 2.5888
 Frc consts  --      0.0102                 0.0111                 0.0199
 IR Inten    --      0.2601                 0.6123                 0.9025

                     10                     11                     12
                      A                      A                      A
 Frequencies --    117.5411               142.4895               144.5080
 Red. masses --      1.6216                 4.8074                 3.8426
 Frc consts  --      0.0132                 0.0575                 0.0473
 IR Inten    --      1.5419                 2.1887                 2.6338

                     13                     14                     15
                      A                      A                      A
 Frequencies --    164.8960               188.0271               198.6440
 Red. masses --      4.2206                 1.3361                 4.4615
 Frc consts  --      0.0676                 0.0278                 0.1037
 IR Inten    --      0.8110                 2.1950                 0.2233

                     16                     17                     18
                      A                      A                      A
 Frequencies --    224.0517               227.6946               275.5736
 Red. masses --      5.8252                 5.4976                 3.4906
 Frc consts  --      0.1723                 0.1679                 0.1562
 IR Inten    --      2.4860                 0.9149                 2.4675

                     19                     20                     21
                      A                      A                      A
 Frequencies --    290.7518               300.3010               316.0093
 Red. masses --      2.4892                 3.9945                 4.8218
 Frc consts  --      0.1240                 0.2122                 0.2837
 IR Inten    --      5.2877                 8.2686                 3.2595

                     22                     23                     24
                      A                      A                      A
 Frequencies --    343.3530               356.5884               357.4977
 Red. masses --      5.0368                 2.2979                 3.0758
 Frc consts  --      0.3499                 0.1722                 0.2316
 IR Inten    --     14.7758                57.3164                54.4423

                     25                     26                     27
                      A                      A                      A
 Frequencies --    397.5861               400.6965               403.4923
 Red. masses --      1.2779                 1.5005                 7.2194
 Frc consts  --      0.1190                 0.1419                 0.6925
 IR Inten    --     52.4256               207.8664                25.0531

                     28                     29                     30
                      A                      A                      A
 Frequencies --    417.1859               425.6911               464.7693
 Red. masses --      3.2335                 3.1568                 3.7310
 Frc consts  --      0.3316                 0.3370                 0.4748
 IR Inten    --      4.5609                 1.7047                18.8616

                     31                     32                     33
                      A                      A                      A
 Frequencies --    471.8658               472.2533               488.1292
 Red. masses --      2.8342                 3.0805                 3.6173
 Frc consts  --      0.3718                 0.4048                 0.5078
 IR Inten    --      0.8310                12.4509                 0.7580

                     34                     35                     36
                      A                      A                      A
 Frequencies --    518.8681               538.9340               546.4637
 Red. masses --      6.3742                 5.1776                 2.8699
 Frc consts  --      1.0111                 0.8860                 0.5049
 IR Inten    --     78.9363                 1.1864                18.6632

                     37                     38                     39
                      A                      A                      A
 Frequencies --    548.8624               556.5789               611.7173
 Red. masses --      2.4206                 1.6704                 5.5183
 Frc consts  --      0.4296                 0.3049                 1.2166
 IR Inten    --    133.6091                87.9582                46.1436

                     40                     41                     42
                      A                      A                      A
 Frequencies --    631.1768               642.6614               656.8161
 Red. masses --      4.2610                 6.6722                 4.4080
 Frc consts  --      1.0001                 1.6236                 1.1204
 IR Inten    --      5.7841                41.6068                 7.4835

                     43                     44                     45
                      A                      A                      A
 Frequencies --    662.8520               702.5537               727.7326
 Red. masses --      4.5687                 3.2727                 5.2807
 Frc consts  --      1.1827                 0.9517                 1.6477
 IR Inten    --      2.6766                 1.0664                 8.1570

                     46                     47                     48
                      A                      A                      A
 Frequencies --    745.5377               763.8964               770.5371
 Red. masses --      4.3932                 7.2937                 4.4866
 Frc consts  --      1.4387                 2.5076                 1.5695
 IR Inten    --      3.9540                 3.4185                 6.6329

                     49                     50                     51
                      A                      A                      A
 Frequencies --    789.2865               803.1334               813.0477
 Red. masses --      4.2238                 2.4781                 1.2218
 Frc consts  --      1.5503                 0.9418                 0.4758
 IR Inten    --     30.8836                11.0002                18.2275

                     52                     53                     54
                      A                      A                      A
 Frequencies --    816.2144               826.1820               848.1691
 Red. masses --      1.3238                 1.7847                 1.5550
 Frc consts  --      0.5196                 0.7177                 0.6591
 IR Inten    --    227.5314                 0.5649                62.4953

                     55                     56                     57
                      A                      A                      A
 Frequencies --    865.6732               881.8246               892.6503
 Red. masses --      3.3410                 2.0760                 2.0240
 Frc consts  --      1.4751                 0.9511                 0.9502
 IR Inten    --      5.5435                37.2795                14.1811

                     58                     59                     60
                      A                      A                      A
 Frequencies --    926.0465               959.2378               965.9802
 Red. masses --      2.4158                 1.3653                 1.3905
 Frc consts  --      1.2206                 0.7402                 0.7644
 IR Inten    --     44.6992                 3.6866                 5.3345

                     61                     62                     63
                      A                      A                      A
 Frequencies --    970.2393               981.4300              1014.0338
 Red. masses --      2.3035                 1.3945                 3.1783
 Frc consts  --      1.2776                 0.7914                 1.9255
 IR Inten    --     44.6537                 1.3067                41.5478

                     64                     65                     66
                      A                      A                      A
 Frequencies --   1032.0607              1048.8805              1053.9456
 Red. masses --      1.2546                 1.2182                 2.3150
 Frc consts  --      0.7873                 0.7896                 1.5151
 IR Inten    --     13.8602                34.4833                 5.0124

                     67                     68                     69
                      A                      A                      A
 Frequencies --   1073.5884              1121.6540              1131.7318
 Red. masses --      3.1928                 1.6797                 2.5865
 Frc consts  --      2.1682                 1.2451                 1.9519
 IR Inten    --    164.0328                 8.6427               455.1350

                     70                     71                     72
                      A                      A                      A
 Frequencies --   1143.2803              1156.9220              1203.1574
 Red. masses --      2.0089                 2.2581                 1.3660
 Frc consts  --      1.5471                 1.7807                 1.1651
 IR Inten    --     65.0645               187.7518               174.2656

                     73                     74                     75
                      A                      A                      A
 Frequencies --   1208.7242              1208.9478              1225.3955
 Red. masses --      1.3168                 1.5234                 1.2875
 Frc consts  --      1.1335                 1.3119                 1.1391
 IR Inten    --     84.7480                93.8517                76.0523

                     76                     77                     78
                      A                      A                      A
 Frequencies --   1249.4011              1255.6751              1273.9954
 Red. masses --      2.3907                 1.6290                 1.6396
 Frc consts  --      2.1988                 1.5133                 1.5679
 IR Inten    --    710.6097               231.9252               255.9076

                     79                     80                     81
                      A                      A                      A
 Frequencies --   1279.2652              1287.2847              1311.7317
 Red. masses --      2.0875                 1.9812                 1.9959
 Frc consts  --      2.0128                 1.9343                 2.0234
 IR Inten    --    665.0630                55.9216                80.5645

                     82                     83                     84
                      A                      A                      A
 Frequencies --   1330.4001              1348.1629              1354.3783
 Red. masses --      2.4237                 2.5828                 1.8825
 Frc consts  --      2.5275                 2.7658                 2.0345
 IR Inten    --     46.6054                33.9620               880.9357

                     85                     86                     87
                      A                      A                      A
 Frequencies --   1381.2584              1384.5139              1405.6649
 Red. masses --      2.0725                 2.3007                 1.5333
 Frc consts  --      2.3296                 2.5984                 1.7850
 IR Inten    --     96.9220               268.2719                39.5057

                     88                     89                     90
                      A                      A                      A
 Frequencies --   1411.7597              1417.0414              1423.2188
 Red. masses --      2.4203                 2.3382                 2.2516
 Frc consts  --      2.8421                 2.7663                 2.6871
 IR Inten    --    165.2037               130.4728               259.8605

                     91                     92                     93
                      A                      A                      A
 Frequencies --   1445.6975              1451.2066              1473.0452
 Red. masses --      1.3833                 1.2625                 2.0536
 Frc consts  --      1.7034                 1.5665                 2.6254
 IR Inten    --     11.5316                 6.2540               124.8102

                     94                     95                     96
                      A                      A                      A
 Frequencies --   1494.6278              1496.0049              1501.6081
 Red. masses --      2.2862                 1.1086                 1.2092
 Frc consts  --      3.0091                 1.4619                 1.6064
 IR Inten    --    137.4394                10.2773                23.9776

                     97                     98                     99
                      A                      A                      A
 Frequencies --   1515.3675              1515.7886              1521.2686
 Red. masses --      1.0488                 1.0484                 1.0856
 Frc consts  --      1.4189                 1.4192                 1.4803
 IR Inten    --     21.4034                20.0483                 6.7380

                    100                    101                    102
                      A                      A                      A
 Frequencies --   1534.0608              1563.7619              1589.3323
 Red. masses --      3.5138                 3.2506                 2.9874
 Frc consts  --      4.8720                 4.6834                 4.4461
 IR Inten    --    144.5847               351.8805               126.7794

                    103                    104                    105
                      A                      A                      A
 Frequencies --   1646.3589              1672.9291              1673.6409
 Red. masses --      5.5333                 5.2735                 5.7553
 Frc consts  --      8.8365                 8.6957                 9.4982
 IR Inten    --   1604.8675               258.8858                81.4600

                    106                    107                    108
                      A                      A                      A
 Frequencies --   1699.4039              1705.4274              1725.4133
 Red. masses --      3.9746                 6.0989                 6.1864
 Frc consts  --      6.7629                10.4513                10.8512
 IR Inten    --    571.2330               338.5771               455.6868

                    109                    110                    111
                      A                      A                      A
 Frequencies --   1768.0797              3055.3488              3063.3876
 Red. masses --      6.6021                 1.0376                 1.0404
 Frc consts  --     12.1601                 5.7069                 5.7522
 IR Inten    --      8.9434                43.0890                49.4557

                    112                    113                    114
                      A                      A                      A
 Frequencies --   3085.5680              3117.5388              3122.1654
 Red. masses --      1.0635                 1.1009                 1.1006
 Frc consts  --      5.9656                 6.3038                 6.3210
 IR Inten    --     35.9921                20.0087                32.1701

                    115                    116                    117
                      A                      A                      A
 Frequencies --   3138.5302              3156.5913              3171.2449
 Red. masses --      1.0984                 1.1023                 1.0890
 Frc consts  --      6.3748                 6.4712                 6.4525
 IR Inten    --      3.0447                31.2728                27.7486

                    118                    119                    120
                      A                      A                      A
 Frequencies --   3177.0956              3223.1076              3230.0464
 Red. masses --      1.0986                 1.0890                 1.0923
 Frc consts  --      6.5337                 6.6653                 6.7144
 IR Inten    --     40.1506                17.3068                14.2790

                    121                    122                    123
                      A                      A                      A
 Frequencies --   3231.7826              3239.2991              3241.4491
 Red. masses --      1.0890                 1.0945                 1.0837
 Frc consts  --      6.7011                 6.7665                 6.7086
 IR Inten    --      3.7364                 8.5423               298.1152

                    124                    125                    126
                      A                      A                      A
 Frequencies --   3243.6237              3255.4629              3274.5920
 Red. masses --      1.0761                 1.0942                 1.0884
 Frc consts  --      6.6703                 6.8324                 6.8763
 IR Inten    --    828.9671                10.4964                19.8415

                    127                    128                    129
                      A                      A                      A
 Frequencies --   3653.0203              3827.0551              3832.7612
 Red. masses --      1.0660                 1.0663                 1.0663
 Frc consts  --      8.3812                 9.2016                 9.2293
 IR Inten    --    852.5162               191.5934               168.9918

 - Thermochemistry -
 -------------------
 Temperature   298.150 Kelvin.  Pressure   1.00000 Atm.
 Atom     1 has atomic number  6 and mass  12.00000

 Molecular mass:   340.13107 amu.
 Principal axes and moments of inertia in atomic units:
                           1         2         3
     Eigenvalues --  2377.27995********************
           X            1.00000  -0.00127  -0.00160
           Y            0.00126   0.99997  -0.00703
           Z            0.00161   0.00703   0.99997
 This molecule is an asymmetric top.
 Rotational symmetry number  1.
 Warning -- assumption of classical behavior for rotation
           may cause significant error
 Rotational temperatures (Kelvin)      0.03643     0.00300     0.00283
 Rotational constants (GHZ):           0.75916     0.06259     0.05902
 Zero-point vibrational energy     957589.0 (Joules/Mol)
                                  228.86927 (Kcal/Mol)
 Warning -- explicit consideration of  39 degrees of freedom as
           vibrations may cause significant error
 Vibrational temperatures:     15.53    17.74    44.29    49.21    69.01
          (Kelvin)             97.45   107.61   116.55   164.18   169.12
                              205.01   207.91   237.25   270.53   285.80
                              322.36   327.60   396.49   418.33   432.07
                              454.67   494.01   513.05   514.36   572.04
                              576.51   580.54   600.24   612.47   668.70
                              678.91   679.47   702.31   746.54   775.41
                              786.24   789.69   800.79   880.12   908.12
                              924.65   945.01   953.70  1010.82  1047.04
                             1072.66  1099.08  1108.63  1135.61  1155.53
                             1169.79  1174.35  1188.69  1220.33  1245.51
                             1268.75  1284.32  1332.37  1380.13  1389.83
                             1395.96  1412.06  1458.97  1484.91  1509.11
                             1516.39  1544.65  1613.81  1628.31  1644.93
                             1664.55  1731.08  1739.08  1739.41  1763.07
                             1797.61  1806.64  1833.00  1840.58  1852.12
                             1887.29  1914.15  1939.71  1948.65  1987.32
                             1992.01  2022.44  2031.21  2038.81  2047.69
                             2080.04  2087.96  2119.38  2150.44  2152.42
                             2160.48  2180.28  2180.88  2188.77  2207.17
                             2249.90  2286.69  2368.74  2406.97  2408.00
                             2445.06  2453.73  2482.48  2543.87  4395.97
                             4407.53  4439.44  4485.44  4492.10  4515.64
                             4541.63  4562.71  4571.13  4637.33  4647.32
                             4649.81  4660.63  4663.72  4666.85  4683.89
                             4711.41  5255.88  5506.28  5514.49

 Zero-point correction=                           0.364726 (Hartree/Particle)
 Thermal correction to Energy=                    0.388629
 Thermal correction to Enthalpy=                  0.389573
 Thermal correction to Gibbs Free Energy=         0.307831
 Sum of electronic and zero-point Energies=          -1149.557697
 Sum of electronic and thermal Energies=             -1149.533795
 Sum of electronic and thermal Enthalpies=           -1149.532851
 Sum of electronic and thermal Free Energies=        -1149.614593

                     E (Thermal)             CV                S
                      KCal/Mol        Cal/Mol-Kelvin    Cal/Mol-Kelvin
 Total                  243.868             90.860            172.041
 Electronic               0.000              0.000              0.000
 Translational            0.889              2.981             43.367
 Rotational               0.889              2.981             35.993
 Vibrational            242.091             84.899             92.681
 Vibration     1          0.593              1.987              7.859
 Vibration     2          0.593              1.987              7.595
 Vibration     3          0.594              1.984              5.778
 Vibration     4          0.594              1.983              5.569
 Vibration     5          0.595              1.978              4.900
 Vibration     6          0.598              1.970              4.218
 Vibration     7          0.599              1.966              4.023
 Vibration     8          0.600              1.962              3.866
 Vibration     9          0.607              1.938              3.198
 Vibration    10          0.608              1.935              3.140
 Vibration    11          0.616              1.911              2.770
 Vibration    12          0.616              1.909              2.743
 Vibration    13          0.623              1.886              2.493
 Vibration    14          0.633              1.856              2.247
 Vibration    15          0.637              1.842              2.146
 Vibration    16          0.649              1.804              1.926
 Vibration    17          0.651              1.799              1.897
 Vibration    18          0.677              1.719              1.561
 Vibration    19          0.687              1.691              1.470
 Vibration    20          0.693              1.673              1.415
 Vibration    21          0.703              1.643              1.331
 Vibration    22          0.722              1.589              1.197
 Vibration    23          0.732              1.562              1.137
 Vibration    24          0.733              1.560              1.133
 Vibration    25          0.764              1.475              0.972
 Vibration    26          0.767              1.469              0.960
 Vibration    27          0.769              1.463              0.950
 Vibration    28          0.780              1.433              0.902
 Vibration    29          0.788              1.414              0.873
 Vibration    30          0.822              1.328              0.752
 Vibration    31          0.829              1.312              0.732
 Vibration    32          0.829              1.312              0.731
 Vibration    33          0.844              1.276              0.688
 Vibration    34          0.874              1.208              0.613
 Vibration    35          0.894              1.164              0.568
 Vibration    36          0.902              1.147              0.552
 Vibration    37          0.904              1.142              0.547
 Vibration    38          0.912              1.125              0.531
 Vibration    39          0.971              1.007              0.430

                           ! Non-Optimized Parameters !
 Normal termination of Gaussian 16 at Tue Jul 11 13:05:54 2023.
