 Gaussian 16, Revision A.03,
 Gaussian 16:  ES64L-G16RevA.03 25-Dec-2016

 ----------------------------------------------------------------------
 # wb97xd/6-311++G(d,p) integral(ultrafinegrid) guess=read geom=check s
 crf=(cpcm,read,solvent=water)
 ----------------------------------------------------------------------

 Candidate Structure: MaDA-TS-1, Conformer: 1, Single-point energies ca
 lculated with wB97X-D/6-311++G(d,p)
 ----------------------------------------------------------------------
 Structure from the checkpoint file:  "MaDA-2-conf-1.chk"
 Charge =  0 Multiplicity = 1

                         Standard orientation:
 ---------------------------------------------------------------------
 Center     Atomic      Atomic             Coordinates (Angstroms)
 Number     Number       Type             X           Y           Z
 ---------------------------------------------------------------------
      1          6           0        6.732956    0.499985    0.093638
      2          6           0        6.943166   -0.872833    0.200898
      3          6           0        5.855871   -1.755016    0.242055
      4          6           0        4.573371   -1.242721    0.173328
      5          6           0        4.316916    0.133065    0.062900
      6          6           0        5.434710    0.997173    0.026520
      7          1           0        7.588638    1.167787    0.062760
      8          1           0        6.018981   -2.824809    0.329551
      9          1           0        3.739959   -1.936781    0.212029
     10          8           0        8.225572   -1.294705    0.262701
     11          1           0        8.249845   -2.258528    0.335061
     12          8           0        5.194529    2.324830   -0.079439
     13          1           0        6.030187    2.810132   -0.088276
     14          6           0        2.976143    0.693238   -0.008405
     15          1           0        2.914249    1.777731   -0.032378
     16          6           0        1.810189    0.019203   -0.050679
     17          1           0        1.790787   -1.062903   -0.037802
     18          6           0        0.537749    0.754132   -0.109233
     19          8           0        0.545369    2.002280   -0.047976
     20          6           0       -0.735700    0.026564   -0.229300
     21          6           0       -0.805264   -1.372925   -0.374339
     22          6           0       -1.962323    0.746920   -0.206910
     23          6           0       -2.007833   -2.032746   -0.469727
     24          1           0        0.101961   -1.963190   -0.417360
     25          6           0       -3.202621    0.093248   -0.299057
     26          6           0       -3.204372   -1.299444   -0.422984
     27          1           0       -2.055675   -3.110712   -0.575186
     28          8           0       -1.980536    2.082618   -0.103619
     29          1           0       -1.027808    2.365624   -0.065672
     30          8           0       -4.347711   -2.009958   -0.524032
     31          1           0       -5.101051   -1.452553   -0.255662
     32          6           0       -4.492990    0.889465   -0.311374
     33          1           0       -4.249967    1.931836   -0.086557
     34          1           0       -4.911031    0.884696   -1.324479
     35          6           0       -5.503983    0.395416    0.696063
     36          1           0       -5.111672    0.290068    1.708165
     37          6           0       -6.795174    0.088984    0.493639
     38          6           0       -7.511273    0.181497   -0.829002
     39          1           0       -7.995295   -0.773552   -1.065860
     40          1           0       -8.308361    0.932691   -0.769209
     41          1           0       -6.860180    0.449446   -1.663262
     42          6           0       -7.661538   -0.373856    1.637389
     43          1           0       -7.105889   -0.426867    2.577778
     44          1           0       -8.510166    0.307689    1.775515
     45          1           0       -8.083306   -1.364424    1.427251
 ---------------------------------------------------------------------

 SCF Done:  E(RwB97XD) =  -1150.24101427     A.U. after   15 cycles

 The electronic state is 1-A.
 Alpha  occ. eigenvalues --  -19.29713 -19.29694 -19.28882 -19.27613 -19.24595
 Alpha  occ. eigenvalues --  -10.39299 -10.37524 -10.37444 -10.37297 -10.36993
 Alpha  occ. eigenvalues --  -10.31765 -10.31114 -10.31024 -10.30664 -10.30655
 Alpha  occ. eigenvalues --  -10.30433 -10.30229 -10.29766 -10.29692 -10.29658
 Alpha  occ. eigenvalues --  -10.29517 -10.28968 -10.28880 -10.28079 -10.27841
 Alpha  occ. eigenvalues --   -1.19024  -1.18792  -1.18445  -1.18166  -1.14618
 Alpha  occ. eigenvalues --   -0.97668  -0.97081  -0.93244  -0.91653  -0.89332
 Alpha  occ. eigenvalues --   -0.86832  -0.86281  -0.84600  -0.82646  -0.79562
 Alpha  occ. eigenvalues --   -0.76983  -0.75751  -0.74695  -0.73834  -0.71531
 Alpha  occ. eigenvalues --   -0.70322  -0.67639  -0.66107  -0.64488  -0.62734
 Alpha  occ. eigenvalues --   -0.61922  -0.60939  -0.60332  -0.59373  -0.58189
 Alpha  occ. eigenvalues --   -0.56530  -0.55927  -0.55023  -0.54043  -0.53704
 Alpha  occ. eigenvalues --   -0.53633  -0.53092  -0.52754  -0.51961  -0.51410
 Alpha  occ. eigenvalues --   -0.51134  -0.50404  -0.50311  -0.50222  -0.49546
 Alpha  occ. eigenvalues --   -0.48477  -0.47674  -0.47252  -0.46995  -0.46586
 Alpha  occ. eigenvalues --   -0.45918  -0.45233  -0.44769  -0.44415  -0.43635
 Alpha  occ. eigenvalues --   -0.43577  -0.42265  -0.41710  -0.38221  -0.36054
 Alpha  occ. eigenvalues --   -0.33224  -0.33181  -0.31926  -0.31166  -0.29245
 Alpha virt. eigenvalues --   -0.02967   0.02976   0.03968   0.04323   0.04904
 Alpha virt. eigenvalues --    0.05076   0.05275   0.05589   0.05701   0.05920
 Alpha virt. eigenvalues --    0.06359   0.06783   0.07520   0.07800   0.07883

 Mulliken charges:
               1
     1  C   -0.299066
     2  C   -0.548779
     3  C   -0.460368
     4  C   -0.726822
     5  C    1.084873
     6  C   -0.284566
     7  H    0.246483
     8  H    0.250007
     9  H    0.217021
    10  O   -0.255666
    11  H    0.319080
    12  O   -0.233784
    13  H    0.324168
    14  C    0.239924
    15  H    0.281882
    16  C    0.361670
    17  H   -0.096274
    18  C   -0.129259
    19  O   -0.365452
    20  C    1.005522
    21  C   -0.855768
    22  C   -0.146370
    23  C   -0.689840
    24  H    0.200406
    25  C    0.533289
    26  C   -0.474508
    27  H    0.259645
    28  O   -0.397376
    29  H    0.426101
    30  O   -0.279480
    31  H    0.401702
    32  C   -0.386778
    33  H    0.259186
    34  H    0.196468
    35  C   -0.646136
    36  H    0.226696
    37  C    0.635539
    38  C   -0.607594
    39  H    0.181988
    40  H    0.184888
    41  H    0.180287
    42  C   -0.665642
    43  H    0.185033
    44  H    0.169932
    45  H    0.177738
 Sum of Mulliken charges =  -0.00000

 Dipole moment (field-independent basis, Debye):
    X=              2.7181    Y=             -4.2993    Z=              0.5352  Tot=              5.1145
 Quadrupole moment (field-independent basis, Debye-Ang):
   XX=            -76.7040   YY=           -140.0404   ZZ=           -151.6626
   XY=            -10.9560   XZ=              0.0322   YZ=             -2.5668

 Normal termination of Gaussian 16 at Tue Jul 11 13:53:36 2023.
