 Gaussian 16, Revision A.03,
 Gaussian 16:  ES64L-G16RevA.03 25-Dec-2016

 ----------------------------------------------------------------------
 # wb97xd/6-311++G(d,p) integral(ultrafinegrid) guess=read geom=check s
 crf=(cpcm,read,solvent=water)
 ----------------------------------------------------------------------

 Candidate Structure: MaDA-TS-2, Conformer: 1, Single-point energies ca
 lculated with wB97X-D/6-311++G(d,p)
 ----------------------------------------------------------------------
 Structure from the checkpoint file:  "MaDA-TS-2-conf-1.chk"
 Charge =  0 Multiplicity = 1

                         Standard orientation:
 ---------------------------------------------------------------------
 Center     Atomic      Atomic             Coordinates (Angstroms)
 Number     Number       Type             X           Y           Z
 ---------------------------------------------------------------------
      1          6           0       -7.982835    0.706434    0.993090
      2          6           0       -7.784288   -0.190988    2.041376
      3          6           0       -6.526903   -0.758791    2.248577
      4          6           0       -5.479879   -0.408894    1.404317
      5          6           0       -5.637401    0.497022    0.354143
      6          6           0       -6.919824    1.039430    0.158208
      7          1           0       -8.968524    1.136448    0.839934
      8          1           0       -6.368661   -1.469639    3.054428
      9          1           0       -4.512861   -0.878606    1.559295
     10          8           0       -8.858991   -0.473756    2.822382
     11          1           0       -8.599859   -1.098998    3.512150
     12          8           0       -7.079568    1.894744   -0.886984
     13          1           0       -7.997856    2.192274   -0.926186
     14          6           0       -4.534021    0.843922   -0.579851
     15          1           0       -4.749356    1.681409   -1.238215
     16          6           0       -3.200570    0.765723   -0.141293
     17          1           0       -2.967821    0.250303    0.779335
     18          6           0       -2.132547    1.474888   -0.785498
     19          8           0       -2.246058    1.908339   -1.964458
     20          6           0       -0.852029    1.626386   -0.057545
     21          6           0       -0.769631    1.529875    1.339950
     22          6           0        0.346577    1.829309   -0.778896
     23          6           0        0.437995    1.607225    1.998760
     24          1           0       -1.677330    1.414675    1.922610
     25          6           0        1.595689    1.860240   -0.137876
     26          6           0        1.618413    1.750546    1.256889
     27          1           0        0.500107    1.548352    3.079929
     28          8           0        0.324272    1.974428   -2.116697
     29          1           0       -0.636080    2.018554   -2.364326
     30          8           0        2.769006    1.782922    1.970097
     31          1           0        3.514535    1.993372    1.380336
     32          6           0        1.821406   -1.616791   -0.098578
     33          6           0        1.528055   -1.518372   -1.457248
     34          6           0        0.788852   -1.742456    0.834767
     35          6           0        0.200548   -1.484625   -1.866053
     36          1           0        2.314194   -1.437445   -2.198326
     37          6           0       -0.534121   -1.717964    0.411386
     38          1           0        1.013824   -1.841630    1.892218
     39          6           0       -0.862807   -1.568409   -0.948372
     40          8           0       -1.561816   -1.797699    1.293388
     41          1           0       -1.212363   -1.758717    2.193682
     42          8           0       -0.019066   -1.360071   -3.200633
     43          1           0       -0.942809   -1.556556   -3.405240
     44          6           0       -2.229842   -1.328332   -1.413906
     45          1           0       -2.301034   -0.576450   -2.196006
     46          6           0       -3.344362   -2.085242   -1.149949
     47          1           0       -3.249983   -2.964356   -0.517408
     48          6           0       -4.636609   -1.680008   -1.550387
     49          6           0       -4.832389   -0.412589   -2.103304
     50          1           0       -4.055270    0.052718   -2.703623
     51          1           0       -5.842043   -0.140165   -2.403343
     52          6           0       -5.826039   -2.524115   -1.178367
     53          1           0       -6.699709   -1.899310   -0.968809
     54          1           0       -6.090495   -3.195791   -2.004953
     55          1           0       -5.624859   -3.142668   -0.298467
     56          6           0        2.866681    1.957440   -0.956017
     57          1           0        2.585569    2.208296   -1.983498
     58          1           0        3.334621    0.966412   -1.000821
     59          6           0        3.837991    2.992055   -0.438561
     60          1           0        3.382286    3.949413   -0.181340
     61          6           0        5.163634    2.868143   -0.271606
     62          6           0        5.981772    4.013973    0.266789
     63          1           0        6.739174    4.323832   -0.464124
     64          1           0        5.362828    4.882034    0.511030
     65          1           0        6.523070    3.709248    1.171210
     66          6           0        5.959623    1.633939   -0.600812
     67          1           0        6.449571    1.235520    0.296475
     68          1           0        5.360731    0.834558   -1.038843
     69          1           0        6.756756    1.883874   -1.311877
     70          6           0        5.182495   -1.309635    1.380527
     71          6           0        5.374868   -1.697495    0.048633
     72          6           0        6.616471   -1.877603   -0.540988
     73          6           0        7.720697   -1.636842    0.271847
     74          6           0        7.568109   -1.239385    1.616117
     75          6           0        6.309875   -1.075631    2.174976
     76          6           0        3.756335   -1.233281    1.554706
     77          6           0        3.205879   -1.562153    0.359394
     78          1           0        6.734069   -2.174782   -1.576432
     79          1           0        8.453888   -1.061266    2.219855
     80          1           0        6.208961   -0.768486    3.210939
     81          1           0        3.219672   -0.921104    2.438009
     82          8           0        8.948013   -1.802833   -0.289816
     83          1           0        9.632900   -1.598823    0.360394
     84          8           0        4.178581   -1.845848   -0.576786
 ---------------------------------------------------------------------

 SCF Done:  E(RwB97XD) =  -2184.69730533     A.U. after   17 cycles

 The electronic state is 1-A.
 Alpha  occ. eigenvalues --  -19.32303 -19.29212 -19.29165 -19.29093 -19.28961
 Alpha  occ. eigenvalues --  -19.28883 -19.28129 -19.26871 -19.22856 -10.37315
 Alpha  occ. eigenvalues --  -10.36881 -10.36649 -10.36499 -10.36422 -10.36340
 Alpha  occ. eigenvalues --  -10.36118 -10.35989 -10.35851 -10.35651 -10.32229
 Alpha  occ. eigenvalues --  -10.32156 -10.32119 -10.31508 -10.30717 -10.30579
 Alpha  occ. eigenvalues --  -10.30304 -10.30098 -10.30032 -10.29911 -10.29908
 Alpha  occ. eigenvalues --  -10.29838 -10.29706 -10.29666 -10.29655 -10.29565
 Alpha  occ. eigenvalues --  -10.29495 -10.29339 -10.29299 -10.29188 -10.29150
 Alpha  occ. eigenvalues --  -10.28968 -10.28894 -10.28506 -10.28198 -10.28159
 Alpha  occ. eigenvalues --  -10.28129 -10.27707 -10.27626  -1.22938  -1.18422
 Alpha  occ. eigenvalues --   -1.18170  -1.18153  -1.17897  -1.17865  -1.17414
 Alpha  occ. eigenvalues --   -1.17086  -1.12682  -0.97929  -0.97168  -0.97010
 Alpha  occ. eigenvalues --   -0.96189  -0.94878  -0.92838  -0.92060  -0.90500
 Alpha  occ. eigenvalues --   -0.89656  -0.88575  -0.86572  -0.86011  -0.85504
 Alpha  occ. eigenvalues --   -0.85424  -0.84953  -0.83583  -0.82055  -0.81976
 Alpha  occ. eigenvalues --   -0.79696  -0.79293  -0.76692  -0.75897  -0.75185
 Alpha  occ. eigenvalues --   -0.74512  -0.73983  -0.72866  -0.72767  -0.71616
 Alpha  occ. eigenvalues --   -0.70713  -0.70112  -0.69673  -0.69567  -0.66914
 Alpha  occ. eigenvalues --   -0.66804  -0.65418  -0.64143  -0.64005  -0.62654
 Alpha  occ. eigenvalues --   -0.61784  -0.61675  -0.60398  -0.60163  -0.60004
 Alpha  occ. eigenvalues --   -0.59879  -0.59660  -0.59032  -0.58565  -0.57698
 Alpha  occ. eigenvalues --   -0.57378  -0.56850  -0.56665  -0.56028  -0.55879
 Alpha  occ. eigenvalues --   -0.55071  -0.54677  -0.54041  -0.53725  -0.53570
 Alpha  occ. eigenvalues --   -0.53305  -0.52781  -0.52748  -0.52463  -0.51688
 Alpha  occ. eigenvalues --   -0.51533  -0.51328  -0.51163  -0.51123  -0.50933
 Alpha  occ. eigenvalues --   -0.50412  -0.50171  -0.49934  -0.49783  -0.49533
 Alpha  occ. eigenvalues --   -0.49473  -0.49264  -0.48648  -0.48025  -0.47916
 Alpha  occ. eigenvalues --   -0.47749  -0.47091  -0.47057  -0.46900  -0.46657
 Alpha  occ. eigenvalues --   -0.46549  -0.46277  -0.46122  -0.45867  -0.45571
 Alpha  occ. eigenvalues --   -0.44985  -0.44575  -0.44467  -0.43812  -0.43776
 Alpha  occ. eigenvalues --   -0.43682  -0.43486  -0.43186  -0.42774  -0.42332
 Alpha  occ. eigenvalues --   -0.41756  -0.41229  -0.40800  -0.38284  -0.36804
 Alpha  occ. eigenvalues --   -0.34731  -0.33435  -0.32914  -0.32683  -0.32536
 Alpha  occ. eigenvalues --   -0.31056  -0.30809  -0.30121  -0.29300  -0.28087
 Alpha  occ. eigenvalues --   -0.27104
 Alpha virt. eigenvalues --   -0.03220   0.00167   0.02997   0.03800   0.04110
 Alpha virt. eigenvalues --    0.04513   0.04632   0.04830   0.04963   0.05043
 Alpha virt. eigenvalues --    0.05409   0.05439   0.05479   0.05882   0.06042

 Mulliken charges:
               1
     1  C   -0.159600
     2  C   -0.689529
     3  C   -0.306901
     4  C   -0.084854
     5  C    0.638033
     6  C   -0.373264
     7  H    0.263256
     8  H    0.245083
     9  H    0.233491
    10  O   -0.260969
    11  H    0.316625
    12  O   -0.205626
    13  H    0.320536
    14  C   -0.107821
    15  H    0.376799
    16  C   -0.031876
    17  H   -0.074813
    18  C   -0.398305
    19  O   -0.295338
    20  C    0.309677
    21  C   -0.178501
    22  C   -0.218847
    23  C   -0.240638
    24  H    0.270408
    25  C    0.649624
    26  C   -0.779449
    27  H    0.231953
    28  O   -0.181382
    29  H    0.329789
    30  O   -0.156448
    31  H    0.403803
    32  C    0.417123
    33  C   -0.678028
    34  C   -0.648660
    35  C   -0.498315
    36  H    0.286412
    37  C   -0.299930
    38  H    0.238837
    39  C    0.653276
    40  O   -0.159680
    41  H    0.327690
    42  O   -0.204769
    43  H    0.327207
    44  C   -0.282836
    45  H    0.256177
    46  C   -0.483263
    47  H    0.266172
    48  C    0.917715
    49  C   -0.748703
    50  H    0.217842
    51  H    0.275371
    52  C   -0.735468
    53  H    0.181498
    54  H    0.232696
    55  H    0.173903
    56  C   -0.528561
    57  H    0.286199
    58  H    0.194721
    59  C   -0.455684
    60  H    0.241489
    61  C    0.442222
    62  C   -0.476957
    63  H    0.185348
    64  H    0.174078
    65  H    0.185321
    66  C   -0.820780
    67  H    0.118997
    68  H    0.184997
    69  H    0.189239
    70  C    0.440538
    71  C    0.377972
    72  C   -0.322869
    73  C   -0.587411
    74  C    0.020078
    75  C   -0.340336
    76  C   -0.240942
    77  C   -0.343523
    78  H    0.269787
    79  H    0.256171
    80  H    0.253235
    81  H    0.262151
    82  O   -0.230620
    83  H    0.313516
    84  O    0.074441
 Sum of Mulliken charges =  -0.00000

 Dipole moment (field-independent basis, Debye):
    X=             -1.9975    Y=             -4.3712    Z=              7.7506  Tot=              9.1197
 Quadrupole moment (field-independent basis, Debye-Ang):
   XX=           -193.0450   YY=           -289.9345   ZZ=           -268.3862
   XY=             25.0981   XZ=             14.7383   YZ=             -6.5544

 Normal termination of Gaussian 16 at Wed Jul 12 19:10:29 2023.
