 Gaussian 16, Revision A.03,
 Gaussian 16:  ES64L-G16RevA.03 25-Dec-2016

 ----------------------------------------------------------------------
 # wb97xd/6-311++G(d,p) integral(ultrafinegrid) guess=read geom=check s
 crf=(cpcm,read,solvent=water)
 ----------------------------------------------------------------------

 Candidate Structure: MaDA-TS-1, Conformer: 1, Single-point energies ca
 lculated with wB97X-D/6-311++G(d,p)
 ----------------------------------------------------------------------
 Structure from the checkpoint file:  "MaDA-1-conf-1.chk"
 Charge =  0 Multiplicity = 1

                         Standard orientation:
 ---------------------------------------------------------------------
 Center     Atomic      Atomic             Coordinates (Angstroms)
 Number     Number       Type             X           Y           Z
 ---------------------------------------------------------------------
      1          6           0       -6.447849    1.952016   -1.576277
      2          6           0       -7.361288    0.946327   -1.892135
      3          6           0       -7.330893   -0.264113   -1.204308
      4          6           0       -6.380903   -0.451087   -0.202208
      5          6           0       -5.454453    0.528738    0.144205
      6          6           0       -5.508925    1.738256   -0.572888
      7          1           0       -6.480499    2.892083   -2.119755
      8          1           0       -8.037670   -1.053326   -1.444465
      9          1           0       -6.367545   -1.403264    0.318506
     10          8           0       -8.254176    1.212907   -2.882009
     11          1           0       -8.826727    0.445262   -3.010763
     12          8           0       -4.597869    2.696159   -0.240408
     13          1           0       -4.736494    3.480402   -0.787487
     14          6           0       -4.388400    0.353401    1.214178
     15          1           0       -4.332100    1.298913    1.765415
     16          6           0       -3.019355    0.150667    0.521323
     17          1           0       -2.964614    0.847730   -0.311157
     18          6           0       -1.833776    0.400963    1.439129
     19          8           0       -1.805236   -0.158131    2.548347
     20          6           0       -0.680742    1.168311    0.955506
     21          6           0       -0.746246    2.025613   -0.160232
     22          6           0        0.596066    0.925197    1.530525
     23          6           0        0.384564    2.592310   -0.698866
     24          1           0       -1.708878    2.270860   -0.594823
     25          6           0        1.767664    1.446970    0.961560
     26          6           0        1.640523    2.276010   -0.155979
     27          1           0        0.332722    3.265069   -1.547537
     28          8           0        0.735313    0.146243    2.613133
     29          1           0       -0.175539   -0.124038    2.884483
     30          8           0        2.714389    2.815787   -0.772446
     31          1           0        3.504532    2.697147   -0.215303
     32          6           0        1.316087   -1.464631   -1.084596
     33          6           0        0.400434   -0.877879   -1.962250
     34          6           0        0.858045   -2.142230    0.039707
     35          6           0       -0.951342   -0.909816   -1.654956
     36          1           0        0.739937   -0.357958   -2.852865
     37          6           0       -0.505242   -2.155323    0.341055
     38          1           0        1.548815   -2.586087    0.746337
     39          6           0       -1.444175   -1.530300   -0.494739
     40          8           0       -0.834717   -2.759969    1.511656
     41          1           0       -1.756682   -2.549510    1.741160
     42          8           0       -1.868715   -0.284981   -2.443500
     43          1           0       -1.414180    0.166985   -3.166284
     44          6           0       -2.895481   -1.273532   -0.112935
     45          1           0       -3.464521   -1.225572   -1.049148
     46          6           0       -3.528042   -2.359420    0.720412
     47          1           0       -3.335770   -3.381071    0.392310
     48          6           0       -4.348206   -2.147658    1.755879
     49          6           0       -4.695122   -0.758510    2.225906
     50          1           0       -5.758265   -0.724088    2.496239
     51          1           0       -4.140148   -0.564855    3.150060
     52          6           0       -4.976694   -3.277718    2.521968
     53          1           0       -4.632075   -4.253296    2.167419
     54          1           0       -4.743960   -3.194757    3.590872
     55          1           0       -6.069908   -3.242797    2.433401
     56          6           0        4.833130   -0.671589   -1.851380
     57          6           0        4.861201   -1.680191   -0.879089
     58          6           0        6.022074   -2.203572   -0.330581
     59          6           0        7.217577   -1.667475   -0.802296
     60          6           0        7.230364   -0.656943   -1.784768
     61          6           0        6.049562   -0.155965   -2.310511
     62          6           0        3.438142   -0.431131   -2.110959
     63          6           0        2.745925   -1.285452   -1.314962
     64          1           0        6.013161   -2.981400    0.423897
     65          1           0        8.183831   -0.264707   -2.128686
     66          1           0        6.075898    0.626524   -3.062006
     67          1           0        3.016317    0.308545   -2.775499
     68          8           0        8.367085   -2.166245   -0.273796
     69          1           0        9.125810   -1.716451   -0.667734
     70          8           0        3.597462   -2.056463   -0.554033
     71          6           0        3.127695    1.082559    1.519829
     72          1           0        2.977280    0.502612    2.434837
     73          1           0        3.637697    0.416489    0.813372
     74          6           0        3.973815    2.296415    1.828890
     75          1           0        3.438327    3.096493    2.341750
     76          6           0        5.273177    2.491604    1.557360
     77          6           0        6.174451    1.491604    0.884139
     78          1           0        6.619689    1.921912   -0.020622
     79          1           0        7.006282    1.233138    1.551307
     80          1           0        5.671874    0.565150    0.602307
     81          6           0        5.952455    3.779735    1.947440
     82          1           0        5.262191    4.480371    2.425810
     83          1           0        6.780766    3.583435    2.639739
     84          1           0        6.387271    4.268644    1.066783
 ---------------------------------------------------------------------

 SCF Done:  E(RwB97XD) =  -2184.77882224     A.U. after   15 cycles

 The electronic state is 1-A.
 Alpha  occ. eigenvalues --  -19.32284 -19.28970 -19.28955 -19.28875 -19.28774
 Alpha  occ. eigenvalues --  -19.28754 -19.27802 -19.27719 -19.25390 -10.39299
 Alpha  occ. eigenvalues --  -10.37109 -10.36701 -10.36474 -10.36163 -10.36108
 Alpha  occ. eigenvalues --  -10.36084 -10.36055 -10.35906 -10.35702 -10.31785
 Alpha  occ. eigenvalues --  -10.31349 -10.30678 -10.30523 -10.30448 -10.30366
 Alpha  occ. eigenvalues --  -10.30346 -10.30255 -10.30145 -10.30121 -10.30053
 Alpha  occ. eigenvalues --  -10.29919 -10.29775 -10.29760 -10.29620 -10.29616
 Alpha  occ. eigenvalues --  -10.29578 -10.29506 -10.28996 -10.28991 -10.28715
 Alpha  occ. eigenvalues --  -10.28676 -10.28588 -10.28564 -10.28505 -10.28434
 Alpha  occ. eigenvalues --  -10.27943 -10.27725 -10.27618  -1.22967  -1.18569
 Alpha  occ. eigenvalues --   -1.18011  -1.17989  -1.17955  -1.17859  -1.17688
 Alpha  occ. eigenvalues --   -1.17039  -1.15271  -0.98071  -0.97327  -0.96937
 Alpha  occ. eigenvalues --   -0.96671  -0.95244  -0.92971  -0.91935  -0.90254
 Alpha  occ. eigenvalues --   -0.89482  -0.88875  -0.86912  -0.86213  -0.85639
 Alpha  occ. eigenvalues --   -0.85233  -0.84602  -0.83384  -0.82435  -0.81872
 Alpha  occ. eigenvalues --   -0.79893  -0.79290  -0.76355  -0.75758  -0.75004
 Alpha  occ. eigenvalues --   -0.74052  -0.73439  -0.73364  -0.72697  -0.71607
 Alpha  occ. eigenvalues --   -0.71241  -0.70763  -0.69544  -0.69398  -0.66582
 Alpha  occ. eigenvalues --   -0.66401  -0.66239  -0.65632  -0.64053  -0.62459
 Alpha  occ. eigenvalues --   -0.61813  -0.60744  -0.60523  -0.60040  -0.59764
 Alpha  occ. eigenvalues --   -0.59709  -0.59251  -0.58734  -0.58317  -0.58021
 Alpha  occ. eigenvalues --   -0.57500  -0.56714  -0.56429  -0.56340  -0.55844
 Alpha  occ. eigenvalues --   -0.55228  -0.54526  -0.54142  -0.53653  -0.53532
 Alpha  occ. eigenvalues --   -0.53142  -0.52748  -0.52548  -0.52078  -0.51868
 Alpha  occ. eigenvalues --   -0.51701  -0.51536  -0.51367  -0.51066  -0.50746
 Alpha  occ. eigenvalues --   -0.50626  -0.50310  -0.50248  -0.49815  -0.49459
 Alpha  occ. eigenvalues --   -0.49143  -0.48865  -0.48422  -0.48092  -0.47882
 Alpha  occ. eigenvalues --   -0.47767  -0.47651  -0.47072  -0.46979  -0.46748
 Alpha  occ. eigenvalues --   -0.46634  -0.46567  -0.46487  -0.45800  -0.45698
 Alpha  occ. eigenvalues --   -0.45127  -0.44704  -0.44627  -0.43978  -0.43719
 Alpha  occ. eigenvalues --   -0.43511  -0.43459  -0.42879  -0.42541  -0.41947
 Alpha  occ. eigenvalues --   -0.41683  -0.41325  -0.40494  -0.39630  -0.37417
 Alpha  occ. eigenvalues --   -0.35256  -0.33897  -0.33129  -0.32760  -0.32454
 Alpha  occ. eigenvalues --   -0.31939  -0.31235  -0.30836  -0.29913  -0.29767
 Alpha  occ. eigenvalues --   -0.27518
 Alpha virt. eigenvalues --   -0.00086   0.00782   0.03731   0.04087   0.04466
 Alpha virt. eigenvalues --    0.04719   0.04913   0.04967   0.05127   0.05240
 Alpha virt. eigenvalues --    0.05253   0.05484   0.05852   0.06218   0.06259

 Mulliken charges:
               1
     1  C   -0.229411
     2  C   -0.668423
     3  C   -0.208512
     4  C   -0.190087
     5  C    0.317028
     6  C   -0.099469
     7  H    0.261540
     8  H    0.252550
     9  H    0.231144
    10  O   -0.275428
    11  H    0.316855
    12  O   -0.212531
    13  H    0.326433
    14  C    0.302675
    15  H    0.315318
    16  C    0.742194
    17  H    0.170931
    18  C   -0.783048
    19  O   -0.229008
    20  C    0.156121
    21  C   -0.243467
    22  C   -0.207925
    23  C   -0.196852
    24  H    0.241152
    25  C    0.824306
    26  C   -0.466410
    27  H    0.246910
    28  O   -0.188535
    29  H    0.393779
    30  O   -0.218529
    31  H    0.399968
    32  C    0.415991
    33  C   -0.520165
    34  C   -0.511005
    35  C   -0.218393
    36  H    0.238954
    37  C   -0.508218
    38  H    0.263350
    39  C   -0.034256
    40  O   -0.194312
    41  H    0.450320
    42  O   -0.150229
    43  H    0.315112
    44  C   -0.228167
    45  H    0.327422
    46  C   -0.684460
    47  H    0.269265
    48  C    0.062939
    49  C   -0.778809
    50  H    0.224367
    51  H    0.268921
    52  C   -0.450185
    53  H    0.177172
    54  H    0.194374
    55  H    0.197725
    56  C    0.366513
    57  C    0.384764
    58  C   -0.414000
    59  C   -0.632973
    60  C   -0.026488
    61  C   -0.394684
    62  C   -0.286474
    63  C   -0.100149
    64  H    0.265787
    65  H    0.250523
    66  H    0.250117
    67  H    0.253514
    68  O   -0.215217
    69  H    0.317047
    70  O    0.064706
    71  C   -0.544392
    72  H    0.293247
    73  H    0.110025
    74  C   -0.632721
    75  H    0.242569
    76  C    0.638512
    77  C   -0.917329
    78  H    0.186056
    79  H    0.183433
    80  H    0.105374
    81  C   -0.499342
    82  H    0.170301
    83  H    0.184176
    84  H    0.188126
 Sum of Mulliken charges =  -0.00000

 Dipole moment (field-independent basis, Debye):
    X=             -0.3466    Y=              4.5624    Z=             -5.6195  Tot=              7.2467
 Quadrupole moment (field-independent basis, Debye-Ang):
   XX=           -197.3787   YY=           -280.8772   ZZ=           -275.5280
   XY=             27.9146   XZ=             -5.3719   YZ=             -6.2425

 Normal termination of Gaussian 16 at Tue Jul 11 19:26:00 2023.
